<?xml version="1.0" encoding="UTF-8"?>

<!-- generated on 2025-06-01 13:11:04 by Eclipse SUMO sumo Version 1.12.0
<configuration xmlns:xsi="http://www.w3.org/2001/XMLSchema-instance" xsi:noNamespaceSchemaLocation="http://sumo.dlr.de/xsd/sumoConfiguration.xsd">

    <input>
        <net-file value="/app/harta-automatica.net.xml"/>
        <route-files value="/app/results/routes_sim_50.rou.xml"/>
    </input>

    <output>
        <tripinfo-output value="/app/results/tripinfo_sim_50.xml"/>
    </output>

    <time>
        <begin value="0"/>
        <end value="3600"/>
        <step-length value="0.1"/>
    </time>

    <processing>
        <ignore-route-errors value="true"/>
    </processing>

    <report>
        <verbose value="true"/>
        <no-warnings value="true"/>
        <no-step-log value="true"/>
    </report>

    <traci_server>
        <remote-port value="45249"/>
    </traci_server>

    <gui_only>
        <quit-on-end value="true"/>
        <tracker-interval value="0.1"/>
    </gui_only>

</configuration>
-->

<tripinfos xmlns:xsi="http://www.w3.org/2001/XMLSchema-instance" xsi:noNamespaceSchemaLocation="http://sumo.dlr.de/xsd/tripinfo_file.xsd">
    <tripinfo id="veh_17" depart="0.00" departLane="-413799403#2_0" departPos="64.46" departSpeed="10.98" departDelay="0.00" arrival="2.60" arrivalLane="-413799403#1_0" arrivalPos="0.20" arrivalSpeed="10.98" duration="2.60" routeLength="28.23" waitingTime="0.00" waitingCount="0" stopTime="0.00" timeLoss="0.00" rerouteNo="0" devices="tripinfo_veh_17" vType="vehicle" speedFactor="1.97" vaporized=""/>
    <tripinfo id="veh_23" depart="0.00" departLane="592846449#3_0" departPos="4.61" departSpeed="8.54" departDelay="0.00" arrival="3.40" arrivalLane="592846449#4_0" arrivalPos="0.20" arrivalSpeed="7.08" duration="3.40" routeLength="19.16" waitingTime="0.00" waitingCount="0" stopTime="0.00" timeLoss="1.14" rerouteNo="0" devices="tripinfo_veh_23" vType="vehicle" speedFactor="1.54" vaporized=""/>
    <tripinfo id="veh_25" depart="0.00" departLane="592846446#1_0" departPos="2.80" departSpeed="0.77" departDelay="0.00" arrival="4.20" arrivalLane="675877705_0" arrivalPos="0.20" arrivalSpeed="5.05" duration="4.20" routeLength="15.85" waitingTime="0.00" waitingCount="0" stopTime="0.00" timeLoss="1.02" rerouteNo="0" devices="tripinfo_veh_25" vType="vehicle" speedFactor="0.91" vaporized=""/>
    <tripinfo id="veh_21" depart="0.00" departLane="592846449#1_0" departPos="0.10" departSpeed="0.77" departDelay="0.00" arrival="4.30" arrivalLane="592846449#2_0" arrivalPos="6.53" arrivalSpeed="5.44" duration="4.30" routeLength="15.12" waitingTime="0.00" waitingCount="0" stopTime="0.00" timeLoss="1.55" rerouteNo="0" devices="tripinfo_veh_21" vType="vehicle" speedFactor="1.01" vaporized=""/>
    <tripinfo id="veh_22" depart="0.00" departLane="592846449#2_0" departPos="6.43" departSpeed="0.77" departDelay="0.00" arrival="6.10" arrivalLane="592846449#3_0" arrivalPos="16.77" arrivalSpeed="5.58" duration="6.10" routeLength="26.18" waitingTime="0.00" waitingCount="0" stopTime="0.00" timeLoss="1.37" rerouteNo="0" devices="tripinfo_veh_22" vType="vehicle" speedFactor="1.01" vaporized=""/>
    <tripinfo id="veh_27" depart="2.80" departLane="592846446#1_0" departPos="2.80" departSpeed="0.77" departDelay="2.80" arrival="7.30" arrivalLane="675877705_0" arrivalPos="0.20" arrivalSpeed="5.27" duration="4.50" routeLength="15.85" waitingTime="0.00" waitingCount="0" stopTime="0.00" timeLoss="1.51" rerouteNo="0" devices="tripinfo_veh_27" vType="vehicle" speedFactor="0.96" vaporized=""/>
    <tripinfo id="veh_16" depart="2.20" departLane="-413799403#2_0" departPos="51.47" departSpeed="12.50" departDelay="2.20" arrival="8.50" arrivalLane="-675877705_0" arrivalPos="0.20" arrivalSpeed="8.08" duration="6.30" routeLength="42.47" waitingTime="0.00" waitingCount="0" stopTime="0.00" timeLoss="2.87" rerouteNo="0" devices="tripinfo_veh_16" vType="vehicle" speedFactor="2.25" vaporized=""/>
    <tripinfo id="veh_19" depart="8.50" departLane="-413799403#1_0" departPos="0.10" departSpeed="0.77" departDelay="8.50" arrival="10.50" arrivalLane="413799403#1_0" arrivalPos="0.20" arrivalSpeed="3.43" duration="2.00" routeLength="4.97" waitingTime="0.00" waitingCount="0" stopTime="0.00" timeLoss="0.63" rerouteNo="0" devices="tripinfo_veh_19" vType="vehicle" speedFactor="0.97" vaporized=""/>
    <tripinfo id="veh_24" depart="6.10" departLane="592846449#3_0" departPos="16.67" departSpeed="0.77" departDelay="6.10" arrival="14.40" arrivalLane="-710632022_0" arrivalPos="32.33" arrivalSpeed="5.25" duration="8.30" routeLength="37.56" waitingTime="0.00" waitingCount="0" stopTime="0.00" timeLoss="1.02" rerouteNo="0" devices="tripinfo_veh_24" vType="vehicle" speedFactor="0.94" vaporized=""/>
    <tripinfo id="veh_20" depart="10.50" departLane="-675877705_0" departPos="0.10" departSpeed="0.77" departDelay="10.50" arrival="15.90" arrivalLane="676167962_0" arrivalPos="2.64" arrivalSpeed="5.98" duration="5.40" routeLength="24.74" waitingTime="0.00" waitingCount="0" stopTime="0.00" timeLoss="1.28" rerouteNo="0" devices="tripinfo_veh_20" vType="vehicle" speedFactor="1.08" vaporized=""/>
    <tripinfo id="veh_1" depart="0.00" departLane="-413799403#0_0" departPos="311.65" departSpeed="0.77" departDelay="0.00" arrival="60.20" arrivalLane="413799403#0_0" arrivalPos="311.82" arrivalSpeed="5.39" duration="60.20" routeLength="316.59" waitingTime="0.00" waitingCount="0" stopTime="0.00" timeLoss="0.93" rerouteNo="0" devices="tripinfo_veh_1" vType="vehicle" speedFactor="0.97" vaporized=""/>
    <tripinfo id="veh_2" depart="3.00" departLane="-413799403#0_0" departPos="311.65" departSpeed="0.77" departDelay="3.00" arrival="64.80" arrivalLane="413799403#0_0" arrivalPos="311.82" arrivalSpeed="5.59" duration="61.80" routeLength="316.59" waitingTime="0.00" waitingCount="0" stopTime="0.00" timeLoss="4.66" rerouteNo="0" devices="tripinfo_veh_2" vType="vehicle" speedFactor="1.01" vaporized=""/>
    <tripinfo id="veh_10" depart="0.00" departLane="-413799403#0_0" departPos="214.92" departSpeed="13.89" departDelay="0.00" arrival="66.80" arrivalLane="413799403#0_0" arrivalPos="311.82" arrivalSpeed="9.23" duration="66.80" routeLength="413.32" waitingTime="0.00" waitingCount="0" stopTime="0.00" timeLoss="36.82" rerouteNo="0" devices="tripinfo_veh_10" vType="vehicle" speedFactor="2.50" vaporized=""/>
    <tripinfo id="veh_3" depart="10.00" departLane="-413799403#0_0" departPos="311.65" departSpeed="0.77" departDelay="10.00" arrival="71.20" arrivalLane="413799403#0_0" arrivalPos="311.82" arrivalSpeed="5.79" duration="61.20" routeLength="316.59" waitingTime="0.00" waitingCount="0" stopTime="0.00" timeLoss="6.06" rerouteNo="0" devices="tripinfo_veh_3" vType="vehicle" speedFactor="1.04" vaporized=""/>
    <tripinfo id="veh_4" depart="13.20" departLane="-413799403#0_0" departPos="311.65" departSpeed="0.77" departDelay="13.20" arrival="75.60" arrivalLane="413799403#0_0" arrivalPos="311.82" arrivalSpeed="5.64" duration="62.40" routeLength="316.59" waitingTime="0.00" waitingCount="0" stopTime="0.00" timeLoss="5.84" rerouteNo="0" devices="tripinfo_veh_4" vType="vehicle" speedFactor="1.02" vaporized=""/>
    <tripinfo id="veh_5" depart="16.70" departLane="-413799403#0_0" departPos="311.65" departSpeed="0.77" departDelay="16.70" arrival="82.90" arrivalLane="413799403#0_0" arrivalPos="311.82" arrivalSpeed="5.09" duration="66.20" routeLength="316.59" waitingTime="0.00" waitingCount="0" stopTime="0.00" timeLoss="3.49" rerouteNo="0" devices="tripinfo_veh_5" vType="vehicle" speedFactor="0.92" vaporized=""/>
    <tripinfo id="veh_6" depart="20.30" departLane="-413799403#0_0" departPos="311.65" departSpeed="0.77" departDelay="20.30" arrival="86.20" arrivalLane="413799403#0_0" arrivalPos="311.82" arrivalSpeed="5.68" duration="65.90" routeLength="316.59" waitingTime="0.00" waitingCount="0" stopTime="0.00" timeLoss="9.81" rerouteNo="0" devices="tripinfo_veh_6" vType="vehicle" speedFactor="1.02" vaporized=""/>
    <tripinfo id="veh_7" depart="23.90" departLane="-413799403#0_0" departPos="311.65" departSpeed="0.77" departDelay="23.90" arrival="91.00" arrivalLane="413799403#0_0" arrivalPos="311.82" arrivalSpeed="5.24" duration="67.10" routeLength="316.59" waitingTime="0.00" waitingCount="0" stopTime="0.00" timeLoss="6.18" rerouteNo="0" devices="tripinfo_veh_7" vType="vehicle" speedFactor="0.94" vaporized=""/>
    <tripinfo id="veh_8" depart="23.90" departLane="-413799403#0_0" departPos="233.33" departSpeed="13.89" departDelay="23.90" arrival="93.00" arrivalLane="413799403#0_0" arrivalPos="311.82" arrivalSpeed="8.95" duration="69.10" routeLength="394.91" waitingTime="0.00" waitingCount="0" stopTime="0.00" timeLoss="40.44" rerouteNo="0" devices="tripinfo_veh_8" vType="vehicle" speedFactor="2.50" vaporized=""/>
    <tripinfo id="veh_12" depart="25.90" departLane="-413799403#0_0" departPos="214.92" departSpeed="13.89" departDelay="25.90" arrival="95.00" arrivalLane="413799403#0_0" arrivalPos="311.82" arrivalSpeed="10.14" duration="69.10" routeLength="408.65" waitingTime="0.00" waitingCount="0" stopTime="0.00" timeLoss="39.32" rerouteNo="0" devices="tripinfo_veh_12" vType="vehicle" speedFactor="2.50" vaporized=""/>
    <tripinfo id="veh_9" depart="23.90" departLane="-413799403#0_0" departPos="214.92" departSpeed="10.00" departDelay="23.90" arrival="97.20" arrivalLane="413799403#0_0" arrivalPos="311.82" arrivalSpeed="9.42" duration="73.30" routeLength="413.32" waitingTime="0.00" waitingCount="0" stopTime="0.00" timeLoss="31.71" rerouteNo="0" devices="tripinfo_veh_9" vType="vehicle" speedFactor="1.80" vaporized=""/>
    <tripinfo id="veh_11" depart="24.90" departLane="-413799403#0_0" departPos="214.92" departSpeed="13.89" departDelay="24.90" arrival="99.20" arrivalLane="413799403#0_0" arrivalPos="311.82" arrivalSpeed="11.21" duration="74.30" routeLength="413.32" waitingTime="0.00" waitingCount="0" stopTime="0.00" timeLoss="44.31" rerouteNo="0" devices="tripinfo_veh_11" vType="vehicle" speedFactor="2.50" vaporized=""/>
    <tripinfo id="veh_15" depart="39.60" departLane="-413799403#0_0" departPos="311.65" departSpeed="0.77" departDelay="39.60" arrival="105.20" arrivalLane="413799403#0_0" arrivalPos="311.82" arrivalSpeed="5.54" duration="65.60" routeLength="316.59" waitingTime="0.00" waitingCount="0" stopTime="0.00" timeLoss="7.98" rerouteNo="0" devices="tripinfo_veh_15" vType="vehicle" speedFactor="1.00" vaporized=""/>
    <tripinfo id="veh_13" depart="26.60" departLane="-413799403#0_0" departPos="218.86" departSpeed="3.33" departDelay="26.60" arrival="109.00" arrivalLane="413799403#0_0" arrivalPos="311.82" arrivalSpeed="5.69" duration="82.40" routeLength="409.38" waitingTime="0.00" waitingCount="0" stopTime="0.00" timeLoss="10.01" rerouteNo="0" devices="tripinfo_veh_13" vType="vehicle" speedFactor="1.02" vaporized=""/>
    <tripinfo id="veh_14" depart="31.00" departLane="-413799403#0_0" departPos="229.88" departSpeed="6.94" departDelay="31.00" arrival="111.60" arrivalLane="413799403#0_0" arrivalPos="311.82" arrivalSpeed="6.86" duration="80.60" routeLength="398.36" waitingTime="0.00" waitingCount="0" stopTime="0.00" timeLoss="22.84" rerouteNo="0" devices="tripinfo_veh_14" vType="vehicle" speedFactor="1.25" vaporized=""/>
    <tripinfo id="veh_b6225d26-18b8-45d5-aa96-ca2f142692cf" depart="0.00" departLane="-592846446#0_0" departPos="79.28" departSpeed="0.77" departDelay="0.00" arrival="312.60" arrivalLane="592846446#0_0" arrivalPos="72.90" arrivalSpeed="5.42" duration="312.60" routeLength="73.00" waitingTime="300.20" waitingCount="1" stopTime="0.00" timeLoss="300.28" rerouteNo="0" devices="tripinfo_veh_b6225d26-18b8-45d5-aa96-ca2f142692cf" vType="vehicle" speedFactor="0.97" vaporized=""/>
    <tripinfo id="veh_18" depart="2.20" departLane="-413799403#2_0" departPos="79.14" departSpeed="5.70" departDelay="2.20" arrival="313.00" arrivalLane="413799403#2_0" arrivalPos="84.56" arrivalSpeed="5.14" duration="310.80" routeLength="94.65" waitingTime="288.60" waitingCount="1" stopTime="0.00" timeLoss="293.70" rerouteNo="0" devices="tripinfo_veh_18" vType="vehicle" speedFactor="1.03" vaporized=""/>
    <tripinfo id="veh_26" depart="0.00" departLane="413799403#2_0" departPos="12.58" departSpeed="12.22" departDelay="0.00" arrival="317.60" arrivalLane="-413799403#2_0" arrivalPos="84.56" arrivalSpeed="12.11" duration="317.60" routeLength="156.54" waitingTime="300.20" waitingCount="1" stopTime="0.00" timeLoss="305.25" rerouteNo="0" devices="tripinfo_veh_26" vType="vehicle" speedFactor="2.20" vaporized=""/>
    <tripinfo id="veh_78d2d987-a03b-4967-97cd-5eb1398e6285" depart="300.30" departLane="-592846446#0_0" departPos="79.28" departSpeed="0.77" departDelay="300.30" arrival="611.90" arrivalLane="592846446#0_0" arrivalPos="72.90" arrivalSpeed="5.93" duration="311.60" routeLength="73.00" waitingTime="300.20" waitingCount="1" stopTime="0.00" timeLoss="300.32" rerouteNo="0" devices="tripinfo_veh_78d2d987-a03b-4967-97cd-5eb1398e6285" vType="vehicle" speedFactor="1.07" vaporized=""/>
    <tripinfo id="veh_ff3c4caf-0a6e-48bf-a90d-d341fc637713" depart="600.60" departLane="-592846446#0_0" departPos="79.28" departSpeed="0.77" departDelay="600.60" arrival="913.30" arrivalLane="592846446#0_0" arrivalPos="72.90" arrivalSpeed="5.37" duration="312.70" routeLength="73.00" waitingTime="300.20" waitingCount="1" stopTime="0.00" timeLoss="300.28" rerouteNo="0" devices="tripinfo_veh_ff3c4caf-0a6e-48bf-a90d-d341fc637713" vType="vehicle" speedFactor="0.97" vaporized=""/>
    <tripinfo id="veh_16cef614-27e3-4b5a-80f9-9bf3ddde5f64" depart="900.90" departLane="-592846446#0_0" departPos="79.28" departSpeed="0.77" departDelay="900.90" arrival="917.50" arrivalLane="-413799403#2_0" arrivalPos="84.56" arrivalSpeed="6.06" duration="16.60" routeLength="92.42" waitingTime="0.00" waitingCount="0" stopTime="0.00" timeLoss="1.29" rerouteNo="0" devices="tripinfo_veh_16cef614-27e3-4b5a-80f9-9bf3ddde5f64" vType="vehicle" speedFactor="1.09" vaporized=""/>
    <tripinfo id="veh_321cca65-85aa-4871-8340-477ef21a0889" depart="903.20" departLane="-592846446#0_0" departPos="79.28" departSpeed="0.77" departDelay="903.20" arrival="1214.70" arrivalLane="592846446#0_0" arrivalPos="72.90" arrivalSpeed="5.99" duration="311.50" routeLength="73.00" waitingTime="300.20" waitingCount="1" stopTime="0.00" timeLoss="300.33" rerouteNo="0" devices="tripinfo_veh_321cca65-85aa-4871-8340-477ef21a0889" vType="vehicle" speedFactor="1.08" vaporized=""/>
    <tripinfo id="veh_86caf304-fcda-4d3e-b4eb-ff0224db7111" depart="1203.50" departLane="-592846446#0_0" departPos="79.28" departSpeed="0.77" departDelay="1203.50" arrival="1515.70" arrivalLane="592846446#0_0" arrivalPos="72.90" arrivalSpeed="5.57" duration="312.20" routeLength="73.00" waitingTime="300.20" waitingCount="1" stopTime="0.00" timeLoss="300.28" rerouteNo="0" devices="tripinfo_veh_86caf304-fcda-4d3e-b4eb-ff0224db7111" vType="vehicle" speedFactor="1.00" vaporized=""/>
    <tripinfo id="veh_dd3cb913-c765-4fbd-a8f2-c3a4f6b93923" depart="1503.80" departLane="-592846446#0_0" departPos="79.28" departSpeed="0.77" departDelay="1503.80" arrival="1520.40" arrivalLane="-413799403#2_0" arrivalPos="84.56" arrivalSpeed="6.04" duration="16.60" routeLength="92.42" waitingTime="0.00" waitingCount="0" stopTime="0.00" timeLoss="1.29" rerouteNo="0" devices="tripinfo_veh_dd3cb913-c765-4fbd-a8f2-c3a4f6b93923" vType="vehicle" speedFactor="1.09" vaporized=""/>
    <tripinfo id="veh_5f94dcce-f755-4c16-9159-c23d2c98e6b3" depart="1506.10" departLane="-592846446#0_0" departPos="79.28" departSpeed="0.77" departDelay="1506.10" arrival="1818.40" arrivalLane="592846446#0_0" arrivalPos="72.90" arrivalSpeed="5.55" duration="312.30" routeLength="73.00" waitingTime="300.20" waitingCount="1" stopTime="0.00" timeLoss="300.28" rerouteNo="0" devices="tripinfo_veh_5f94dcce-f755-4c16-9159-c23d2c98e6b3" vType="vehicle" speedFactor="1.00" vaporized=""/>
    <tripinfo id="veh_59563556-f2c3-4ad2-9ba9-4ecda0753172" depart="1806.40" departLane="-592846446#0_0" departPos="79.28" departSpeed="0.77" departDelay="1806.40" arrival="1824.10" arrivalLane="-413799403#2_0" arrivalPos="84.56" arrivalSpeed="5.61" duration="17.70" routeLength="92.42" waitingTime="0.00" waitingCount="0" stopTime="0.00" timeLoss="1.17" rerouteNo="0" devices="tripinfo_veh_59563556-f2c3-4ad2-9ba9-4ecda0753172" vType="vehicle" speedFactor="1.01" vaporized=""/>
    <tripinfo id="veh_aa90fec5-4e0e-4ad2-85c4-99f429a3b4d2" depart="1809.20" departLane="-592846446#0_0" departPos="79.28" departSpeed="0.77" departDelay="1809.20" arrival="1828.50" arrivalLane="-413799403#2_0" arrivalPos="84.56" arrivalSpeed="5.49" duration="19.30" routeLength="92.42" waitingTime="0.00" waitingCount="0" stopTime="0.00" timeLoss="2.40" rerouteNo="0" devices="tripinfo_veh_aa90fec5-4e0e-4ad2-85c4-99f429a3b4d2" vType="vehicle" speedFactor="0.99" vaporized=""/>
    <tripinfo id="veh_4ff6e212-5768-4da4-bea9-a785f0f40727" depart="1812.40" departLane="-592846446#0_0" departPos="79.28" departSpeed="0.77" departDelay="1812.40" arrival="1831.60" arrivalLane="-413799403#2_0" arrivalPos="84.56" arrivalSpeed="6.05" duration="19.20" routeLength="92.42" waitingTime="0.00" waitingCount="0" stopTime="0.00" timeLoss="3.93" rerouteNo="0" devices="tripinfo_veh_4ff6e212-5768-4da4-bea9-a785f0f40727" vType="vehicle" speedFactor="1.09" vaporized=""/>
    <tripinfo id="veh_e8b5dc9a-5749-49d6-927e-1884dc3d3cb5" depart="1815.80" departLane="-592846446#0_0" departPos="79.28" departSpeed="0.77" departDelay="1815.80" arrival="1835.10" arrivalLane="-413799403#2_0" arrivalPos="84.56" arrivalSpeed="5.84" duration="19.30" routeLength="92.42" waitingTime="0.00" waitingCount="0" stopTime="0.00" timeLoss="3.49" rerouteNo="0" devices="tripinfo_veh_e8b5dc9a-5749-49d6-927e-1884dc3d3cb5" vType="vehicle" speedFactor="1.05" vaporized=""/>
    <tripinfo id="veh_e56566d4-a5f0-4d1f-83e5-85de4bfda59b" depart="1819.10" departLane="-592846446#0_0" departPos="79.28" departSpeed="0.77" departDelay="1819.10" arrival="1839.50" arrivalLane="-413799403#2_0" arrivalPos="84.56" arrivalSpeed="5.28" duration="20.40" routeLength="92.42" waitingTime="0.00" waitingCount="0" stopTime="0.00" timeLoss="2.89" rerouteNo="0" devices="tripinfo_veh_e56566d4-a5f0-4d1f-83e5-85de4bfda59b" vType="vehicle" speedFactor="0.95" vaporized=""/>
    <tripinfo id="veh_6459dab1-9d9f-49c5-a66b-b2ecd7140dfa" depart="1822.50" departLane="-592846446#0_0" departPos="79.28" departSpeed="0.77" departDelay="1822.50" arrival="1842.90" arrivalLane="-413799403#2_0" arrivalPos="84.56" arrivalSpeed="5.64" duration="20.40" routeLength="92.42" waitingTime="0.00" waitingCount="0" stopTime="0.00" timeLoss="3.98" rerouteNo="0" devices="tripinfo_veh_6459dab1-9d9f-49c5-a66b-b2ecd7140dfa" vType="vehicle" speedFactor="1.02" vaporized=""/>
    <tripinfo id="veh_839753f5-70af-4e11-a077-9d38f4021fe6" depart="1826.00" departLane="-592846446#0_0" departPos="79.28" departSpeed="0.77" departDelay="1826.00" arrival="1846.60" arrivalLane="-413799403#2_0" arrivalPos="84.56" arrivalSpeed="5.44" duration="20.60" routeLength="92.42" waitingTime="0.00" waitingCount="0" stopTime="0.00" timeLoss="3.60" rerouteNo="0" devices="tripinfo_veh_839753f5-70af-4e11-a077-9d38f4021fe6" vType="vehicle" speedFactor="0.98" vaporized=""/>
    <tripinfo id="veh_d5e81ffa-383d-478f-a017-489f849eebbd" depart="1829.40" departLane="-592846446#0_0" departPos="79.28" departSpeed="0.77" departDelay="1829.40" arrival="1849.80" arrivalLane="-413799403#2_0" arrivalPos="84.56" arrivalSpeed="5.81" duration="20.40" routeLength="92.42" waitingTime="0.00" waitingCount="0" stopTime="0.00" timeLoss="4.49" rerouteNo="0" devices="tripinfo_veh_d5e81ffa-383d-478f-a017-489f849eebbd" vType="vehicle" speedFactor="1.05" vaporized=""/>
    <tripinfo id="veh_b75067fe-1f5d-4544-988c-4143987e2ee8" depart="1832.90" departLane="-592846446#0_0" departPos="79.28" departSpeed="0.77" departDelay="1832.90" arrival="1853.30" arrivalLane="-413799403#2_0" arrivalPos="84.56" arrivalSpeed="5.66" duration="20.40" routeLength="92.42" waitingTime="0.00" waitingCount="0" stopTime="0.00" timeLoss="4.04" rerouteNo="0" devices="tripinfo_veh_b75067fe-1f5d-4544-988c-4143987e2ee8" vType="vehicle" speedFactor="1.02" vaporized=""/>
    <tripinfo id="veh_3db6e4b6-208e-487f-a65e-57d5978965b6" depart="1835.80" departLane="-592846446#0_0" departPos="79.28" departSpeed="0.77" departDelay="1835.80" arrival="2147.80" arrivalLane="592846446#0_0" arrivalPos="72.90" arrivalSpeed="5.68" duration="312.00" routeLength="73.00" waitingTime="300.20" waitingCount="1" stopTime="0.00" timeLoss="300.29" rerouteNo="0" devices="tripinfo_veh_3db6e4b6-208e-487f-a65e-57d5978965b6" vType="vehicle" speedFactor="1.02" vaporized=""/>
    <tripinfo id="veh_fbd22d6f-87d5-47f7-acda-3c351df15b77" depart="2136.10" departLane="-592846446#0_0" departPos="79.28" departSpeed="0.77" departDelay="2136.10" arrival="2447.90" arrivalLane="592846446#0_0" arrivalPos="72.90" arrivalSpeed="5.80" duration="311.80" routeLength="73.00" waitingTime="300.20" waitingCount="1" stopTime="0.00" timeLoss="300.31" rerouteNo="0" devices="tripinfo_veh_fbd22d6f-87d5-47f7-acda-3c351df15b77" vType="vehicle" speedFactor="1.04" vaporized=""/>
    <tripinfo id="veh_a0cce44d-cbd8-4ebc-9362-7449e792988c" depart="2436.40" departLane="-592846446#0_0" departPos="79.28" departSpeed="0.77" departDelay="2436.40" arrival="2748.70" arrivalLane="592846446#0_0" arrivalPos="72.90" arrivalSpeed="5.55" duration="312.30" routeLength="73.00" waitingTime="300.20" waitingCount="1" stopTime="0.00" timeLoss="300.28" rerouteNo="0" devices="tripinfo_veh_a0cce44d-cbd8-4ebc-9362-7449e792988c" vType="vehicle" speedFactor="1.00" vaporized=""/>
