<?xml version="1.0" encoding="UTF-8"?>

<!-- generated on 2025-06-01 13:11:04 by Eclipse SUMO sumo Version 1.12.0
<configuration xmlns:xsi="http://www.w3.org/2001/XMLSchema-instance" xsi:noNamespaceSchemaLocation="http://sumo.dlr.de/xsd/sumoConfiguration.xsd">

    <input>
        <net-file value="/app/harta-automatica.net.xml"/>
        <route-files value="/app/results/routes_sim_60.rou.xml"/>
    </input>

    <output>
        <tripinfo-output value="/app/results/tripinfo_sim_60.xml"/>
    </output>

    <time>
        <begin value="0"/>
        <end value="3600"/>
        <step-length value="0.1"/>
    </time>

    <processing>
        <ignore-route-errors value="true"/>
    </processing>

    <report>
        <verbose value="true"/>
        <no-warnings value="true"/>
        <no-step-log value="true"/>
    </report>

    <traci_server>
        <remote-port value="52791"/>
    </traci_server>

    <gui_only>
        <quit-on-end value="true"/>
        <tracker-interval value="0.1"/>
    </gui_only>

</configuration>
-->

<tripinfos xmlns:xsi="http://www.w3.org/2001/XMLSchema-instance" xsi:noNamespaceSchemaLocation="http://sumo.dlr.de/xsd/tripinfo_file.xsd">
    <tripinfo id="veh_21" depart="0.00" departLane="592846449#1_0" departPos="0.10" departSpeed="0.77" departDelay="0.00" arrival="2.00" arrivalLane="-592846449#1_0" arrivalPos="0.20" arrivalSpeed="3.53" duration="2.00" routeLength="4.97" waitingTime="0.00" waitingCount="0" stopTime="0.00" timeLoss="0.68" rerouteNo="0" devices="tripinfo_veh_21" vType="vehicle" speedFactor="1.01" vaporized=""/>
    <tripinfo id="veh_17" depart="0.00" departLane="-413799403#2_0" departPos="64.46" departSpeed="10.98" departDelay="0.00" arrival="4.60" arrivalLane="-675877705_0" arrivalPos="0.20" arrivalSpeed="8.09" duration="4.60" routeLength="29.48" waitingTime="0.00" waitingCount="0" stopTime="0.00" timeLoss="1.86" rerouteNo="0" devices="tripinfo_veh_17" vType="vehicle" speedFactor="1.97" vaporized=""/>
    <tripinfo id="veh_23" depart="0.00" departLane="592846449#3_0" departPos="4.61" departSpeed="8.54" departDelay="0.00" arrival="5.50" arrivalLane="-592846449#3_0" arrivalPos="16.77" arrivalSpeed="8.01" duration="5.50" routeLength="33.60" waitingTime="0.00" waitingCount="0" stopTime="0.00" timeLoss="1.26" rerouteNo="0" devices="tripinfo_veh_23" vType="vehicle" speedFactor="1.54" vaporized=""/>
    <tripinfo id="veh_25" depart="0.00" departLane="592846446#1_0" departPos="2.80" departSpeed="0.77" departDelay="0.00" arrival="6.00" arrivalLane="676167962_0" arrivalPos="2.64" arrivalSpeed="5.07" duration="6.00" routeLength="24.95" waitingTime="0.00" waitingCount="0" stopTime="0.00" timeLoss="1.02" rerouteNo="0" devices="tripinfo_veh_25" vType="vehicle" speedFactor="0.91" vaporized=""/>
    <tripinfo id="veh_22" depart="0.00" departLane="592846449#2_0" departPos="6.43" departSpeed="0.77" departDelay="0.00" arrival="6.10" arrivalLane="592846449#3_0" arrivalPos="16.77" arrivalSpeed="5.58" duration="6.10" routeLength="26.18" waitingTime="0.00" waitingCount="0" stopTime="0.00" timeLoss="1.39" rerouteNo="0" devices="tripinfo_veh_22" vType="vehicle" speedFactor="1.01" vaporized=""/>
    <tripinfo id="veh_18" depart="3.80" departLane="-413799403#2_0" departPos="79.14" departSpeed="5.70" departDelay="3.80" arrival="6.60" arrivalLane="-413799403#1_0" arrivalPos="0.20" arrivalSpeed="5.58" duration="2.80" routeLength="13.55" waitingTime="0.00" waitingCount="0" stopTime="0.00" timeLoss="0.41" rerouteNo="0" devices="tripinfo_veh_18" vType="vehicle" speedFactor="1.03" vaporized=""/>
    <tripinfo id="veh_27" depart="2.30" departLane="592846446#1_0" departPos="2.80" departSpeed="0.77" departDelay="2.30" arrival="8.50" arrivalLane="676167961_0" arrivalPos="0.20" arrivalSpeed="5.32" duration="6.20" routeLength="20.29" waitingTime="0.70" waitingCount="1" stopTime="0.00" timeLoss="2.38" rerouteNo="0" devices="tripinfo_veh_27" vType="vehicle" speedFactor="0.96" vaporized=""/>
    <tripinfo id="veh_20" depart="8.50" departLane="-675877705_0" departPos="0.10" departSpeed="0.77" departDelay="8.50" arrival="10.70" arrivalLane="676167961_0" arrivalPos="0.20" arrivalSpeed="4.33" duration="2.20" routeLength="5.93" waitingTime="0.00" waitingCount="0" stopTime="0.00" timeLoss="0.91" rerouteNo="0" devices="tripinfo_veh_20" vType="vehicle" speedFactor="1.08" vaporized=""/>
    <tripinfo id="veh_24" depart="6.10" departLane="592846449#3_0" departPos="16.67" departSpeed="0.77" departDelay="6.10" arrival="11.60" arrivalLane="-592846449#3_0" arrivalPos="16.77" arrivalSpeed="5.24" duration="5.50" routeLength="21.54" waitingTime="0.00" waitingCount="0" stopTime="0.00" timeLoss="0.90" rerouteNo="0" devices="tripinfo_veh_24" vType="vehicle" speedFactor="0.94" vaporized=""/>
    <tripinfo id="veh_26" depart="0.00" departLane="413799403#2_0" departPos="12.58" departSpeed="12.22" departDelay="0.00" arrival="14.00" arrivalLane="592846446#0_0" arrivalPos="72.90" arrivalSpeed="12.14" duration="14.00" routeLength="147.47" waitingTime="0.00" waitingCount="0" stopTime="0.00" timeLoss="1.84" rerouteNo="0" devices="tripinfo_veh_26" vType="vehicle" speedFactor="2.20" vaporized=""/>
    <tripinfo id="veh_16" depart="3.80" departLane="-413799403#2_0" departPos="51.47" departSpeed="12.50" departDelay="3.80" arrival="17.00" arrivalLane="413799403#2_0" arrivalPos="84.56" arrivalSpeed="12.42" duration="13.20" routeLength="122.32" waitingTime="0.00" waitingCount="0" stopTime="0.00" timeLoss="3.20" rerouteNo="0" devices="tripinfo_veh_16" vType="vehicle" speedFactor="2.25" vaporized=""/>
    <tripinfo id="veh_1" depart="0.00" departLane="-413799403#0_0" departPos="311.65" departSpeed="0.77" departDelay="0.00" arrival="60.20" arrivalLane="413799403#0_0" arrivalPos="311.82" arrivalSpeed="5.39" duration="60.20" routeLength="316.59" waitingTime="0.00" waitingCount="0" stopTime="0.00" timeLoss="0.93" rerouteNo="0" devices="tripinfo_veh_1" vType="vehicle" speedFactor="0.97" vaporized=""/>
    <tripinfo id="veh_10" depart="0.00" departLane="-413799403#0_0" departPos="214.92" departSpeed="16.67" departDelay="0.00" arrival="62.10" arrivalLane="413799403#0_0" arrivalPos="311.82" arrivalSpeed="9.04" duration="62.10" routeLength="413.32" waitingTime="0.00" waitingCount="0" stopTime="0.00" timeLoss="37.17" rerouteNo="0" devices="tripinfo_veh_10" vType="vehicle" speedFactor="3.00" vaporized=""/>
    <tripinfo id="veh_2" depart="8.30" departLane="-413799403#0_0" departPos="311.65" departSpeed="0.77" departDelay="8.30" arrival="68.10" arrivalLane="413799403#0_0" arrivalPos="311.82" arrivalSpeed="5.59" duration="59.80" routeLength="316.59" waitingTime="0.00" waitingCount="0" stopTime="0.00" timeLoss="2.65" rerouteNo="0" devices="tripinfo_veh_2" vType="vehicle" speedFactor="1.01" vaporized=""/>
    <tripinfo id="veh_19" depart="10.70" departLane="-413799403#1_0" departPos="0.10" departSpeed="0.77" departDelay="10.70" arrival="71.60" arrivalLane="-413799403#0_0" arrivalPos="311.75" arrivalSpeed="5.40" duration="60.90" routeLength="322.20" waitingTime="0.00" waitingCount="0" stopTime="0.00" timeLoss="1.15" rerouteNo="0" devices="tripinfo_veh_19" vType="vehicle" speedFactor="0.97" vaporized=""/>
    <tripinfo id="veh_3" depart="11.50" departLane="-413799403#0_0" departPos="311.65" departSpeed="0.77" departDelay="11.50" arrival="72.20" arrivalLane="413799403#0_0" arrivalPos="311.82" arrivalSpeed="5.79" duration="60.70" routeLength="316.59" waitingTime="0.00" waitingCount="0" stopTime="0.00" timeLoss="5.54" rerouteNo="0" devices="tripinfo_veh_3" vType="vehicle" speedFactor="1.04" vaporized=""/>
    <tripinfo id="veh_4" depart="14.90" departLane="-413799403#0_0" departPos="311.65" departSpeed="0.77" departDelay="14.90" arrival="76.70" arrivalLane="413799403#0_0" arrivalPos="311.82" arrivalSpeed="5.64" duration="61.80" routeLength="316.59" waitingTime="0.00" waitingCount="0" stopTime="0.00" timeLoss="5.30" rerouteNo="0" devices="tripinfo_veh_4" vType="vehicle" speedFactor="1.02" vaporized=""/>
    <tripinfo id="veh_5" depart="18.40" departLane="-413799403#0_0" departPos="311.65" departSpeed="0.77" departDelay="18.40" arrival="84.40" arrivalLane="413799403#0_0" arrivalPos="311.82" arrivalSpeed="5.09" duration="66.00" routeLength="316.59" waitingTime="0.00" waitingCount="0" stopTime="0.00" timeLoss="3.33" rerouteNo="0" devices="tripinfo_veh_5" vType="vehicle" speedFactor="0.92" vaporized=""/>
    <tripinfo id="veh_6" depart="22.00" departLane="-413799403#0_0" departPos="311.65" departSpeed="0.77" departDelay="22.00" arrival="87.80" arrivalLane="413799403#0_0" arrivalPos="311.82" arrivalSpeed="5.68" duration="65.80" routeLength="316.59" waitingTime="0.00" waitingCount="0" stopTime="0.00" timeLoss="9.69" rerouteNo="0" devices="tripinfo_veh_6" vType="vehicle" speedFactor="1.02" vaporized=""/>
    <tripinfo id="veh_7" depart="25.60" departLane="-413799403#0_0" departPos="311.65" departSpeed="0.77" departDelay="25.60" arrival="92.50" arrivalLane="413799403#0_0" arrivalPos="311.82" arrivalSpeed="5.24" duration="66.90" routeLength="316.59" waitingTime="0.00" waitingCount="0" stopTime="0.00" timeLoss="6.09" rerouteNo="0" devices="tripinfo_veh_7" vType="vehicle" speedFactor="0.94" vaporized=""/>
    <tripinfo id="veh_8" depart="25.60" departLane="-413799403#0_0" departPos="233.33" departSpeed="13.89" departDelay="25.60" arrival="94.50" arrivalLane="413799403#0_0" arrivalPos="311.82" arrivalSpeed="8.95" duration="68.90" routeLength="394.91" waitingTime="0.00" waitingCount="0" stopTime="0.00" timeLoss="40.27" rerouteNo="0" devices="tripinfo_veh_8" vType="vehicle" speedFactor="2.50" vaporized=""/>
    <tripinfo id="veh_11" depart="26.60" departLane="-413799403#0_0" departPos="214.92" departSpeed="16.67" departDelay="26.60" arrival="96.50" arrivalLane="413799403#0_0" arrivalPos="311.82" arrivalSpeed="10.46" duration="69.90" routeLength="408.65" waitingTime="0.00" waitingCount="0" stopTime="0.00" timeLoss="42.87" rerouteNo="0" devices="tripinfo_veh_11" vType="vehicle" speedFactor="3.00" vaporized=""/>
    <tripinfo id="veh_9" depart="25.60" departLane="-413799403#0_0" departPos="214.92" departSpeed="10.00" departDelay="25.60" arrival="98.80" arrivalLane="413799403#0_0" arrivalPos="311.82" arrivalSpeed="9.48" duration="73.20" routeLength="413.32" waitingTime="0.00" waitingCount="0" stopTime="0.00" timeLoss="31.57" rerouteNo="0" devices="tripinfo_veh_9" vType="vehicle" speedFactor="1.80" vaporized=""/>
    <tripinfo id="veh_12" depart="27.20" departLane="-413799403#0_0" departPos="214.92" departSpeed="16.67" departDelay="27.20" arrival="100.70" arrivalLane="413799403#0_0" arrivalPos="311.82" arrivalSpeed="11.71" duration="73.50" routeLength="413.32" waitingTime="0.00" waitingCount="0" stopTime="0.00" timeLoss="48.50" rerouteNo="0" devices="tripinfo_veh_12" vType="vehicle" speedFactor="3.00" vaporized=""/>
    <tripinfo id="veh_15" depart="41.30" departLane="-413799403#0_0" departPos="311.65" departSpeed="0.77" departDelay="41.30" arrival="106.80" arrivalLane="413799403#0_0" arrivalPos="311.82" arrivalSpeed="5.54" duration="65.50" routeLength="316.59" waitingTime="0.00" waitingCount="0" stopTime="0.00" timeLoss="7.88" rerouteNo="0" devices="tripinfo_veh_15" vType="vehicle" speedFactor="1.00" vaporized=""/>
    <tripinfo id="veh_13" depart="28.40" departLane="-413799403#0_0" departPos="218.86" departSpeed="3.33" departDelay="28.40" arrival="110.60" arrivalLane="413799403#0_0" arrivalPos="311.82" arrivalSpeed="5.69" duration="82.20" routeLength="409.38" waitingTime="0.00" waitingCount="0" stopTime="0.00" timeLoss="9.80" rerouteNo="0" devices="tripinfo_veh_13" vType="vehicle" speedFactor="1.02" vaporized=""/>
    <tripinfo id="veh_14" depart="32.60" departLane="-413799403#0_0" departPos="229.88" departSpeed="6.94" departDelay="32.60" arrival="113.20" arrivalLane="413799403#0_0" arrivalPos="311.82" arrivalSpeed="6.86" duration="80.60" routeLength="398.36" waitingTime="0.00" waitingCount="0" stopTime="0.00" timeLoss="22.83" rerouteNo="0" devices="tripinfo_veh_14" vType="vehicle" speedFactor="1.25" vaporized=""/>
    <tripinfo id="veh_b6225d26-18b8-45d5-aa96-ca2f142692cf" depart="0.00" departLane="-592846446#0_0" departPos="79.28" departSpeed="0.77" departDelay="0.00" arrival="312.60" arrivalLane="592846446#0_0" arrivalPos="72.90" arrivalSpeed="5.42" duration="312.60" routeLength="73.00" waitingTime="300.20" waitingCount="1" stopTime="0.00" timeLoss="300.28" rerouteNo="0" devices="tripinfo_veh_b6225d26-18b8-45d5-aa96-ca2f142692cf" vType="vehicle" speedFactor="0.97" vaporized=""/>
    <tripinfo id="veh_78d2d987-a03b-4967-97cd-5eb1398e6285" depart="300.30" departLane="-592846446#0_0" departPos="79.28" departSpeed="0.77" departDelay="300.30" arrival="317.20" arrivalLane="-413799403#2_0" arrivalPos="84.56" arrivalSpeed="5.93" duration="16.90" routeLength="92.42" waitingTime="0.00" waitingCount="0" stopTime="0.00" timeLoss="1.26" rerouteNo="0" devices="tripinfo_veh_78d2d987-a03b-4967-97cd-5eb1398e6285" vType="vehicle" speedFactor="1.07" vaporized=""/>
    <tripinfo id="veh_ff3c4caf-0a6e-48bf-a90d-d341fc637713" depart="303.00" departLane="-592846446#0_0" departPos="79.28" departSpeed="0.77" departDelay="303.00" arrival="322.40" arrivalLane="-413799403#2_0" arrivalPos="84.56" arrivalSpeed="5.37" duration="19.40" routeLength="92.42" waitingTime="0.00" waitingCount="0" stopTime="0.00" timeLoss="2.12" rerouteNo="0" devices="tripinfo_veh_ff3c4caf-0a6e-48bf-a90d-d341fc637713" vType="vehicle" speedFactor="0.97" vaporized=""/>
    <tripinfo id="veh_16cef614-27e3-4b5a-80f9-9bf3ddde5f64" depart="306.30" departLane="-592846446#0_0" departPos="79.28" departSpeed="0.77" departDelay="306.30" arrival="325.50" arrivalLane="-413799403#2_0" arrivalPos="84.56" arrivalSpeed="6.04" duration="19.20" routeLength="92.42" waitingTime="0.00" waitingCount="0" stopTime="0.00" timeLoss="3.89" rerouteNo="0" devices="tripinfo_veh_16cef614-27e3-4b5a-80f9-9bf3ddde5f64" vType="vehicle" speedFactor="1.09" vaporized=""/>
    <tripinfo id="veh_321cca65-85aa-4871-8340-477ef21a0889" depart="309.60" departLane="-592846446#0_0" departPos="79.28" departSpeed="0.77" departDelay="309.60" arrival="328.80" arrivalLane="-413799403#2_0" arrivalPos="84.56" arrivalSpeed="5.98" duration="19.20" routeLength="92.42" waitingTime="0.00" waitingCount="0" stopTime="0.00" timeLoss="3.76" rerouteNo="0" devices="tripinfo_veh_321cca65-85aa-4871-8340-477ef21a0889" vType="vehicle" speedFactor="1.08" vaporized=""/>
    <tripinfo id="veh_86caf304-fcda-4d3e-b4eb-ff0224db7111" depart="312.90" departLane="-592846446#0_0" departPos="79.28" departSpeed="0.77" departDelay="312.90" arrival="332.70" arrivalLane="-413799403#2_0" arrivalPos="84.56" arrivalSpeed="5.57" duration="19.80" routeLength="92.42" waitingTime="0.00" waitingCount="0" stopTime="0.00" timeLoss="3.23" rerouteNo="0" devices="tripinfo_veh_86caf304-fcda-4d3e-b4eb-ff0224db7111" vType="vehicle" speedFactor="1.00" vaporized=""/>
    <tripinfo id="veh_dd3cb913-c765-4fbd-a8f2-c3a4f6b93923" depart="315.80" departLane="-592846446#0_0" departPos="79.28" departSpeed="0.77" departDelay="315.80" arrival="627.20" arrivalLane="592846446#0_0" arrivalPos="72.90" arrivalSpeed="6.04" duration="311.40" routeLength="73.00" waitingTime="300.20" waitingCount="1" stopTime="0.00" timeLoss="300.34" rerouteNo="0" devices="tripinfo_veh_dd3cb913-c765-4fbd-a8f2-c3a4f6b93923" vType="vehicle" speedFactor="1.09" vaporized=""/>
    <tripinfo id="veh_5f94dcce-f755-4c16-9159-c23d2c98e6b3" depart="616.10" departLane="-592846446#0_0" departPos="79.28" departSpeed="0.77" departDelay="616.10" arrival="633.90" arrivalLane="-413799403#2_0" arrivalPos="84.56" arrivalSpeed="5.55" duration="17.80" routeLength="92.42" waitingTime="0.00" waitingCount="0" stopTime="0.00" timeLoss="1.15" rerouteNo="0" devices="tripinfo_veh_5f94dcce-f755-4c16-9159-c23d2c98e6b3" vType="vehicle" speedFactor="1.00" vaporized=""/>
    <tripinfo id="veh_59563556-f2c3-4ad2-9ba9-4ecda0753172" depart="618.40" departLane="-592846446#0_0" departPos="79.28" departSpeed="0.77" departDelay="618.40" arrival="930.60" arrivalLane="592846446#0_0" arrivalPos="72.90" arrivalSpeed="5.61" duration="312.20" routeLength="73.00" waitingTime="300.20" waitingCount="1" stopTime="0.00" timeLoss="300.29" rerouteNo="0" devices="tripinfo_veh_59563556-f2c3-4ad2-9ba9-4ecda0753172" vType="vehicle" speedFactor="1.01" vaporized=""/>
    <tripinfo id="veh_aa90fec5-4e0e-4ad2-85c4-99f429a3b4d2" depart="918.70" departLane="-592846446#0_0" departPos="79.28" departSpeed="0.77" departDelay="918.70" arrival="1231.10" arrivalLane="592846446#0_0" arrivalPos="72.90" arrivalSpeed="5.49" duration="312.40" routeLength="73.00" waitingTime="300.20" waitingCount="1" stopTime="0.00" timeLoss="300.28" rerouteNo="0" devices="tripinfo_veh_aa90fec5-4e0e-4ad2-85c4-99f429a3b4d2" vType="vehicle" speedFactor="0.99" vaporized=""/>
    <tripinfo id="veh_4ff6e212-5768-4da4-bea9-a785f0f40727" depart="1219.00" departLane="-592846446#0_0" departPos="79.28" departSpeed="0.77" departDelay="1219.00" arrival="1530.40" arrivalLane="592846446#0_0" arrivalPos="72.90" arrivalSpeed="6.06" duration="311.40" routeLength="73.00" waitingTime="300.20" waitingCount="1" stopTime="0.00" timeLoss="300.34" rerouteNo="0" devices="tripinfo_veh_4ff6e212-5768-4da4-bea9-a785f0f40727" vType="vehicle" speedFactor="1.09" vaporized=""/>
    <tripinfo id="veh_e8b5dc9a-5749-49d6-927e-1884dc3d3cb5" depart="1519.30" departLane="-592846446#0_0" departPos="79.28" departSpeed="0.77" departDelay="1519.30" arrival="1831.00" arrivalLane="592846446#0_0" arrivalPos="72.90" arrivalSpeed="5.84" duration="311.70" routeLength="73.00" waitingTime="300.20" waitingCount="1" stopTime="0.00" timeLoss="300.31" rerouteNo="0" devices="tripinfo_veh_e8b5dc9a-5749-49d6-927e-1884dc3d3cb5" vType="vehicle" speedFactor="1.05" vaporized=""/>
    <tripinfo id="veh_e56566d4-a5f0-4d1f-83e5-85de4bfda59b" depart="1819.60" departLane="-592846446#0_0" departPos="79.28" departSpeed="0.77" departDelay="1819.60" arrival="2132.50" arrivalLane="592846446#0_0" arrivalPos="72.90" arrivalSpeed="5.28" duration="312.90" routeLength="73.00" waitingTime="300.20" waitingCount="1" stopTime="0.00" timeLoss="300.28" rerouteNo="0" devices="tripinfo_veh_e56566d4-a5f0-4d1f-83e5-85de4bfda59b" vType="vehicle" speedFactor="0.95" vaporized=""/>
    <tripinfo id="veh_6459dab1-9d9f-49c5-a66b-b2ecd7140dfa" depart="2119.90" departLane="-592846446#0_0" departPos="79.28" departSpeed="0.77" departDelay="2119.90" arrival="2432.00" arrivalLane="592846446#0_0" arrivalPos="72.90" arrivalSpeed="5.64" duration="312.10" routeLength="73.00" waitingTime="300.20" waitingCount="1" stopTime="0.00" timeLoss="300.29" rerouteNo="0" devices="tripinfo_veh_6459dab1-9d9f-49c5-a66b-b2ecd7140dfa" vType="vehicle" speedFactor="1.02" vaporized=""/>
    <tripinfo id="veh_839753f5-70af-4e11-a077-9d38f4021fe6" depart="2420.20" departLane="-592846446#0_0" departPos="79.28" departSpeed="0.77" departDelay="2420.20" arrival="2438.30" arrivalLane="-413799403#2_0" arrivalPos="84.56" arrivalSpeed="5.44" duration="18.10" routeLength="92.42" waitingTime="0.00" waitingCount="0" stopTime="0.00" timeLoss="1.12" rerouteNo="0" devices="tripinfo_veh_839753f5-70af-4e11-a077-9d38f4021fe6" vType="vehicle" speedFactor="0.98" vaporized=""/>
    <tripinfo id="veh_d5e81ffa-383d-478f-a017-489f849eebbd" depart="2422.50" departLane="-592846446#0_0" departPos="79.28" departSpeed="0.77" departDelay="2422.50" arrival="2734.30" arrivalLane="592846446#0_0" arrivalPos="72.90" arrivalSpeed="5.82" duration="311.80" routeLength="73.00" waitingTime="300.20" waitingCount="1" stopTime="0.00" timeLoss="300.31" rerouteNo="0" devices="tripinfo_veh_d5e81ffa-383d-478f-a017-489f849eebbd" vType="vehicle" speedFactor="1.05" vaporized=""/>
    <tripinfo id="veh_b75067fe-1f5d-4544-988c-4143987e2ee8" depart="2722.80" departLane="-592846446#0_0" departPos="79.28" departSpeed="0.77" departDelay="2722.80" arrival="2740.30" arrivalLane="-413799403#2_0" arrivalPos="84.56" arrivalSpeed="5.66" duration="17.50" routeLength="92.42" waitingTime="0.00" waitingCount="0" stopTime="0.00" timeLoss="1.18" rerouteNo="0" devices="tripinfo_veh_b75067fe-1f5d-4544-988c-4143987e2ee8" vType="vehicle" speedFactor="1.02" vaporized=""/>
