<?xml version="1.0" encoding="UTF-8"?>

<!-- generated on 2025-06-01 13:11:04 by Eclipse SUMO sumo Version 1.12.0
<configuration xmlns:xsi="http://www.w3.org/2001/XMLSchema-instance" xsi:noNamespaceSchemaLocation="http://sumo.dlr.de/xsd/sumoConfiguration.xsd">

    <input>
        <net-file value="/app/harta-automatica.net.xml"/>
        <route-files value="/app/results/routes_sim_25.rou.xml"/>
    </input>

    <output>
        <tripinfo-output value="/app/results/tripinfo_sim_25.xml"/>
    </output>

    <time>
        <begin value="0"/>
        <end value="3600"/>
        <step-length value="0.1"/>
    </time>

    <processing>
        <ignore-route-errors value="true"/>
    </processing>

    <report>
        <verbose value="true"/>
        <no-warnings value="true"/>
        <no-step-log value="true"/>
    </report>

    <traci_server>
        <remote-port value="52421"/>
    </traci_server>

    <gui_only>
        <quit-on-end value="true"/>
        <tracker-interval value="0.1"/>
    </gui_only>

</configuration>
-->

<tripinfos xmlns:xsi="http://www.w3.org/2001/XMLSchema-instance" xsi:noNamespaceSchemaLocation="http://sumo.dlr.de/xsd/tripinfo_file.xsd">
    <tripinfo id="veh_17" depart="0.00" departLane="-413799403#2_0" departPos="64.46" departSpeed="6.94" departDelay="0.00" arrival="4.50" arrivalLane="-413799403#1_0" arrivalPos="0.20" arrivalSpeed="6.85" duration="4.50" routeLength="28.23" waitingTime="0.00" waitingCount="0" stopTime="0.00" timeLoss="0.38" rerouteNo="0" devices="tripinfo_veh_17" vType="vehicle" speedFactor="1.25" vaporized=""/>
    <tripinfo id="veh_25" depart="0.00" departLane="592846446#1_0" departPos="2.80" departSpeed="0.77" departDelay="0.00" arrival="6.00" arrivalLane="676167962_0" arrivalPos="2.64" arrivalSpeed="5.07" duration="6.00" routeLength="24.95" waitingTime="0.00" waitingCount="0" stopTime="0.00" timeLoss="1.02" rerouteNo="0" devices="tripinfo_veh_25" vType="vehicle" speedFactor="0.91" vaporized=""/>
    <tripinfo id="veh_22" depart="0.00" departLane="592846449#2_0" departPos="6.43" departSpeed="0.77" departDelay="0.00" arrival="6.30" arrivalLane="592846449#3_0" arrivalPos="16.77" arrivalSpeed="5.56" duration="6.30" routeLength="26.18" waitingTime="0.00" waitingCount="0" stopTime="0.00" timeLoss="1.56" rerouteNo="0" devices="tripinfo_veh_22" vType="vehicle" speedFactor="1.01" vaporized=""/>
    <tripinfo id="veh_23" depart="0.00" departLane="592846449#3_0" departPos="4.61" departSpeed="6.94" departDelay="0.00" arrival="6.40" arrivalLane="-592846449#3_0" arrivalPos="16.77" arrivalSpeed="6.78" duration="6.40" routeLength="33.60" waitingTime="0.00" waitingCount="0" stopTime="0.00" timeLoss="1.19" rerouteNo="0" devices="tripinfo_veh_23" vType="vehicle" speedFactor="1.25" vaporized=""/>
    <tripinfo id="veh_24" depart="6.30" departLane="592846449#3_0" departPos="16.67" departSpeed="0.77" departDelay="6.30" arrival="8.70" arrivalLane="592846449#4_0" arrivalPos="0.20" arrivalSpeed="4.68" duration="2.40" routeLength="7.10" waitingTime="0.00" waitingCount="0" stopTime="0.00" timeLoss="1.00" rerouteNo="0" devices="tripinfo_veh_24" vType="vehicle" speedFactor="0.94" vaporized=""/>
    <tripinfo id="veh_27" depart="2.30" departLane="592846446#1_0" departPos="2.80" departSpeed="0.77" departDelay="2.30" arrival="9.50" arrivalLane="676167962_0" arrivalPos="2.64" arrivalSpeed="5.32" duration="7.20" routeLength="24.95" waitingTime="0.60" waitingCount="1" stopTime="0.00" timeLoss="2.49" rerouteNo="0" devices="tripinfo_veh_27" vType="vehicle" speedFactor="0.96" vaporized=""/>
    <tripinfo id="veh_16" depart="3.80" departLane="-413799403#2_0" departPos="51.47" departSpeed="6.94" departDelay="3.80" arrival="11.50" arrivalLane="-675877705_0" arrivalPos="0.20" arrivalSpeed="6.50" duration="7.70" routeLength="42.47" waitingTime="0.00" waitingCount="0" stopTime="0.00" timeLoss="1.56" rerouteNo="0" devices="tripinfo_veh_16" vType="vehicle" speedFactor="1.25" vaporized=""/>
    <tripinfo id="veh_20" depart="5.30" departLane="-675877705_0" departPos="0.10" departSpeed="0.77" departDelay="5.30" arrival="12.80" arrivalLane="676167962_0" arrivalPos="2.64" arrivalSpeed="5.97" duration="7.50" routeLength="24.74" waitingTime="1.30" waitingCount="1" stopTime="0.00" timeLoss="3.33" rerouteNo="0" devices="tripinfo_veh_20" vType="vehicle" speedFactor="1.08" vaporized=""/>
    <tripinfo id="veh_21" depart="0.00" departLane="592846449#1_0" departPos="0.10" departSpeed="0.77" departDelay="0.00" arrival="14.60" arrivalLane="675849497_0" arrivalPos="65.53" arrivalSpeed="5.61" duration="14.60" routeLength="75.05" waitingTime="0.00" waitingCount="0" stopTime="0.00" timeLoss="1.17" rerouteNo="0" devices="tripinfo_veh_21" vType="vehicle" speedFactor="1.01" vaporized=""/>
    <tripinfo id="veh_1" depart="0.00" departLane="-413799403#0_0" departPos="311.65" departSpeed="0.77" departDelay="0.00" arrival="60.20" arrivalLane="413799403#0_0" arrivalPos="311.82" arrivalSpeed="5.39" duration="60.20" routeLength="316.59" waitingTime="0.00" waitingCount="0" stopTime="0.00" timeLoss="0.93" rerouteNo="0" devices="tripinfo_veh_1" vType="vehicle" speedFactor="0.97" vaporized=""/>
    <tripinfo id="veh_19" depart="0.00" departLane="-413799403#1_0" departPos="0.10" departSpeed="0.77" departDelay="0.00" arrival="61.90" arrivalLane="-413799403#0_0" arrivalPos="311.75" arrivalSpeed="5.30" duration="61.90" routeLength="322.20" waitingTime="0.00" waitingCount="0" stopTime="0.00" timeLoss="2.20" rerouteNo="0" devices="tripinfo_veh_19" vType="vehicle" speedFactor="0.97" vaporized=""/>
    <tripinfo id="veh_2" depart="3.00" departLane="-413799403#0_0" departPos="311.65" departSpeed="0.77" departDelay="3.00" arrival="64.80" arrivalLane="413799403#0_0" arrivalPos="311.82" arrivalSpeed="5.59" duration="61.80" routeLength="316.59" waitingTime="0.00" waitingCount="0" stopTime="0.00" timeLoss="4.66" rerouteNo="0" devices="tripinfo_veh_2" vType="vehicle" speedFactor="1.01" vaporized=""/>
    <tripinfo id="veh_3" depart="6.50" departLane="-413799403#0_0" departPos="311.65" departSpeed="0.77" departDelay="6.50" arrival="68.60" arrivalLane="413799403#0_0" arrivalPos="311.82" arrivalSpeed="5.79" duration="62.10" routeLength="316.59" waitingTime="0.00" waitingCount="0" stopTime="0.00" timeLoss="6.97" rerouteNo="0" devices="tripinfo_veh_3" vType="vehicle" speedFactor="1.04" vaporized=""/>
    <tripinfo id="veh_4" depart="10.00" departLane="-413799403#0_0" departPos="311.65" departSpeed="0.77" departDelay="10.00" arrival="72.90" arrivalLane="413799403#0_0" arrivalPos="311.82" arrivalSpeed="5.64" duration="62.90" routeLength="316.59" waitingTime="0.00" waitingCount="0" stopTime="0.00" timeLoss="6.31" rerouteNo="0" devices="tripinfo_veh_4" vType="vehicle" speedFactor="1.02" vaporized=""/>
    <tripinfo id="veh_10" depart="0.00" departLane="-413799403#0_0" departPos="214.92" departSpeed="6.94" departDelay="0.00" arrival="75.50" arrivalLane="413799403#0_0" arrivalPos="311.82" arrivalSpeed="6.86" duration="75.50" routeLength="413.32" waitingTime="0.00" waitingCount="0" stopTime="0.00" timeLoss="15.56" rerouteNo="0" devices="tripinfo_veh_10" vType="vehicle" speedFactor="1.25" vaporized=""/>
    <tripinfo id="veh_5" depart="17.40" departLane="-413799403#0_0" departPos="311.65" departSpeed="0.77" departDelay="17.40" arrival="83.20" arrivalLane="413799403#0_0" arrivalPos="311.82" arrivalSpeed="5.09" duration="65.80" routeLength="316.59" waitingTime="0.00" waitingCount="0" stopTime="0.00" timeLoss="3.05" rerouteNo="0" devices="tripinfo_veh_5" vType="vehicle" speedFactor="0.92" vaporized=""/>
    <tripinfo id="veh_6" depart="20.90" departLane="-413799403#0_0" departPos="311.65" departSpeed="0.77" departDelay="20.90" arrival="86.50" arrivalLane="413799403#0_0" arrivalPos="311.82" arrivalSpeed="5.68" duration="65.60" routeLength="316.59" waitingTime="0.00" waitingCount="0" stopTime="0.00" timeLoss="9.53" rerouteNo="0" devices="tripinfo_veh_6" vType="vehicle" speedFactor="1.02" vaporized=""/>
    <tripinfo id="veh_7" depart="24.50" departLane="-413799403#0_0" departPos="311.65" departSpeed="0.77" departDelay="24.50" arrival="91.30" arrivalLane="413799403#0_0" arrivalPos="311.82" arrivalSpeed="5.24" duration="66.80" routeLength="316.59" waitingTime="0.00" waitingCount="0" stopTime="0.00" timeLoss="5.91" rerouteNo="0" devices="tripinfo_veh_7" vType="vehicle" speedFactor="0.94" vaporized=""/>
    <tripinfo id="veh_8" depart="24.50" departLane="-413799403#0_0" departPos="233.33" departSpeed="6.94" departDelay="24.50" arrival="93.80" arrivalLane="413799403#0_0" arrivalPos="311.82" arrivalSpeed="6.81" duration="69.30" routeLength="394.91" waitingTime="0.00" waitingCount="0" stopTime="0.00" timeLoss="11.98" rerouteNo="0" devices="tripinfo_veh_8" vType="vehicle" speedFactor="1.25" vaporized=""/>
    <tripinfo id="veh_9" depart="24.50" departLane="-413799403#0_0" departPos="214.92" departSpeed="6.94" departDelay="24.50" arrival="96.50" arrivalLane="413799403#0_0" arrivalPos="311.82" arrivalSpeed="6.88" duration="72.00" routeLength="413.32" waitingTime="0.00" waitingCount="0" stopTime="0.00" timeLoss="12.03" rerouteNo="0" devices="tripinfo_veh_9" vType="vehicle" speedFactor="1.25" vaporized=""/>
    <tripinfo id="veh_11" depart="25.90" departLane="-413799403#0_0" departPos="214.92" departSpeed="6.94" departDelay="25.90" arrival="99.30" arrivalLane="413799403#0_0" arrivalPos="311.82" arrivalSpeed="6.90" duration="73.40" routeLength="413.32" waitingTime="0.00" waitingCount="0" stopTime="0.00" timeLoss="13.43" rerouteNo="0" devices="tripinfo_veh_11" vType="vehicle" speedFactor="1.25" vaporized=""/>
    <tripinfo id="veh_12" depart="28.20" departLane="-413799403#0_0" departPos="214.92" departSpeed="6.94" departDelay="28.20" arrival="102.10" arrivalLane="413799403#0_0" arrivalPos="311.82" arrivalSpeed="6.90" duration="73.90" routeLength="413.32" waitingTime="0.00" waitingCount="0" stopTime="0.00" timeLoss="13.98" rerouteNo="0" devices="tripinfo_veh_12" vType="vehicle" speedFactor="1.25" vaporized=""/>
    <tripinfo id="veh_13" depart="32.00" departLane="-413799403#0_0" departPos="218.86" departSpeed="3.33" departDelay="32.00" arrival="109.10" arrivalLane="413799403#0_0" arrivalPos="311.82" arrivalSpeed="5.69" duration="77.10" routeLength="409.38" waitingTime="0.00" waitingCount="0" stopTime="0.00" timeLoss="4.67" rerouteNo="0" devices="tripinfo_veh_13" vType="vehicle" speedFactor="1.02" vaporized=""/>
    <tripinfo id="veh_14" depart="37.10" departLane="-413799403#0_0" departPos="229.88" departSpeed="6.94" departDelay="37.10" arrival="111.80" arrivalLane="413799403#0_0" arrivalPos="311.82" arrivalSpeed="6.88" duration="74.70" routeLength="398.36" waitingTime="0.00" waitingCount="0" stopTime="0.00" timeLoss="16.88" rerouteNo="0" devices="tripinfo_veh_14" vType="vehicle" speedFactor="1.25" vaporized=""/>
    <tripinfo id="veh_15" depart="57.30" departLane="-413799403#0_0" departPos="311.65" departSpeed="0.77" departDelay="57.30" arrival="118.30" arrivalLane="413799403#0_0" arrivalPos="311.82" arrivalSpeed="5.54" duration="61.00" routeLength="316.59" waitingTime="0.00" waitingCount="0" stopTime="0.00" timeLoss="3.36" rerouteNo="0" devices="tripinfo_veh_15" vType="vehicle" speedFactor="1.00" vaporized=""/>
    <tripinfo id="veh_b6225d26-18b8-45d5-aa96-ca2f142692cf" depart="0.00" departLane="-592846446#0_0" departPos="79.28" departSpeed="0.77" departDelay="0.00" arrival="312.60" arrivalLane="592846446#0_0" arrivalPos="72.90" arrivalSpeed="5.42" duration="312.60" routeLength="73.00" waitingTime="300.20" waitingCount="1" stopTime="0.00" timeLoss="300.28" rerouteNo="0" devices="tripinfo_veh_b6225d26-18b8-45d5-aa96-ca2f142692cf" vType="vehicle" speedFactor="0.97" vaporized=""/>
    <tripinfo id="veh_18" depart="3.80" departLane="-413799403#2_0" departPos="79.14" departSpeed="5.70" departDelay="3.80" arrival="316.60" arrivalLane="413799403#2_0" arrivalPos="84.56" arrivalSpeed="5.14" duration="312.80" routeLength="94.65" waitingTime="290.60" waitingCount="1" stopTime="0.00" timeLoss="295.74" rerouteNo="0" devices="tripinfo_veh_18" vType="vehicle" speedFactor="1.03" vaporized=""/>
    <tripinfo id="veh_26" depart="0.00" departLane="413799403#2_0" departPos="12.58" departSpeed="6.94" departDelay="0.00" arrival="325.00" arrivalLane="-413799403#2_0" arrivalPos="84.56" arrivalSpeed="6.94" duration="325.00" routeLength="156.54" waitingTime="300.10" waitingCount="1" stopTime="0.00" timeLoss="303.31" rerouteNo="0" devices="tripinfo_veh_26" vType="vehicle" speedFactor="1.25" vaporized=""/>
    <tripinfo id="veh_78d2d987-a03b-4967-97cd-5eb1398e6285" depart="300.30" departLane="-592846446#0_0" departPos="79.28" departSpeed="0.77" departDelay="300.30" arrival="611.90" arrivalLane="592846446#0_0" arrivalPos="72.90" arrivalSpeed="5.93" duration="311.60" routeLength="73.00" waitingTime="300.20" waitingCount="1" stopTime="0.00" timeLoss="300.32" rerouteNo="0" devices="tripinfo_veh_78d2d987-a03b-4967-97cd-5eb1398e6285" vType="vehicle" speedFactor="1.07" vaporized=""/>
    <tripinfo id="veh_ff3c4caf-0a6e-48bf-a90d-d341fc637713" depart="600.60" departLane="-592846446#0_0" departPos="79.28" departSpeed="0.77" departDelay="600.60" arrival="913.30" arrivalLane="592846446#0_0" arrivalPos="72.90" arrivalSpeed="5.37" duration="312.70" routeLength="73.00" waitingTime="300.20" waitingCount="1" stopTime="0.00" timeLoss="300.28" rerouteNo="0" devices="tripinfo_veh_ff3c4caf-0a6e-48bf-a90d-d341fc637713" vType="vehicle" speedFactor="0.97" vaporized=""/>
    <tripinfo id="veh_16cef614-27e3-4b5a-80f9-9bf3ddde5f64" depart="900.90" departLane="-592846446#0_0" departPos="79.28" departSpeed="0.77" departDelay="900.90" arrival="917.50" arrivalLane="-413799403#2_0" arrivalPos="84.56" arrivalSpeed="6.06" duration="16.60" routeLength="92.42" waitingTime="0.00" waitingCount="0" stopTime="0.00" timeLoss="1.29" rerouteNo="0" devices="tripinfo_veh_16cef614-27e3-4b5a-80f9-9bf3ddde5f64" vType="vehicle" speedFactor="1.09" vaporized=""/>
    <tripinfo id="veh_321cca65-85aa-4871-8340-477ef21a0889" depart="903.20" departLane="-592846446#0_0" departPos="79.28" departSpeed="0.77" departDelay="903.20" arrival="1214.70" arrivalLane="592846446#0_0" arrivalPos="72.90" arrivalSpeed="5.99" duration="311.50" routeLength="73.00" waitingTime="300.20" waitingCount="1" stopTime="0.00" timeLoss="300.33" rerouteNo="0" devices="tripinfo_veh_321cca65-85aa-4871-8340-477ef21a0889" vType="vehicle" speedFactor="1.08" vaporized=""/>
    <tripinfo id="veh_86caf304-fcda-4d3e-b4eb-ff0224db7111" depart="1203.50" departLane="-592846446#0_0" departPos="79.28" departSpeed="0.77" departDelay="1203.50" arrival="1221.30" arrivalLane="-413799403#2_0" arrivalPos="84.56" arrivalSpeed="5.57" duration="17.80" routeLength="92.42" waitingTime="0.00" waitingCount="0" stopTime="0.00" timeLoss="1.16" rerouteNo="0" devices="tripinfo_veh_86caf304-fcda-4d3e-b4eb-ff0224db7111" vType="vehicle" speedFactor="1.00" vaporized=""/>
    <tripinfo id="veh_dd3cb913-c765-4fbd-a8f2-c3a4f6b93923" depart="1205.80" departLane="-592846446#0_0" departPos="79.28" departSpeed="0.77" departDelay="1205.80" arrival="1517.20" arrivalLane="592846446#0_0" arrivalPos="72.90" arrivalSpeed="6.04" duration="311.40" routeLength="73.00" waitingTime="300.20" waitingCount="1" stopTime="0.00" timeLoss="300.34" rerouteNo="0" devices="tripinfo_veh_dd3cb913-c765-4fbd-a8f2-c3a4f6b93923" vType="vehicle" speedFactor="1.09" vaporized=""/>
    <tripinfo id="veh_5f94dcce-f755-4c16-9159-c23d2c98e6b3" depart="1506.10" departLane="-592846446#0_0" departPos="79.28" departSpeed="0.77" departDelay="1506.10" arrival="1818.40" arrivalLane="592846446#0_0" arrivalPos="72.90" arrivalSpeed="5.55" duration="312.30" routeLength="73.00" waitingTime="300.20" waitingCount="1" stopTime="0.00" timeLoss="300.28" rerouteNo="0" devices="tripinfo_veh_5f94dcce-f755-4c16-9159-c23d2c98e6b3" vType="vehicle" speedFactor="1.00" vaporized=""/>
    <tripinfo id="veh_59563556-f2c3-4ad2-9ba9-4ecda0753172" depart="1806.40" departLane="-592846446#0_0" departPos="79.28" departSpeed="0.77" departDelay="1806.40" arrival="1824.10" arrivalLane="-413799403#2_0" arrivalPos="84.56" arrivalSpeed="5.61" duration="17.70" routeLength="92.42" waitingTime="0.00" waitingCount="0" stopTime="0.00" timeLoss="1.17" rerouteNo="0" devices="tripinfo_veh_59563556-f2c3-4ad2-9ba9-4ecda0753172" vType="vehicle" speedFactor="1.01" vaporized=""/>
    <tripinfo id="veh_aa90fec5-4e0e-4ad2-85c4-99f429a3b4d2" depart="1808.70" departLane="-592846446#0_0" departPos="79.28" departSpeed="0.77" departDelay="1808.70" arrival="2121.10" arrivalLane="592846446#0_0" arrivalPos="72.90" arrivalSpeed="5.49" duration="312.40" routeLength="73.00" waitingTime="300.20" waitingCount="1" stopTime="0.00" timeLoss="300.28" rerouteNo="0" devices="tripinfo_veh_aa90fec5-4e0e-4ad2-85c4-99f429a3b4d2" vType="vehicle" speedFactor="0.99" vaporized=""/>
    <tripinfo id="veh_4ff6e212-5768-4da4-bea9-a785f0f40727" depart="2109.00" departLane="-592846446#0_0" departPos="79.28" departSpeed="0.77" departDelay="2109.00" arrival="2420.40" arrivalLane="592846446#0_0" arrivalPos="72.90" arrivalSpeed="6.06" duration="311.40" routeLength="73.00" waitingTime="300.20" waitingCount="1" stopTime="0.00" timeLoss="300.34" rerouteNo="0" devices="tripinfo_veh_4ff6e212-5768-4da4-bea9-a785f0f40727" vType="vehicle" speedFactor="1.09" vaporized=""/>
    <tripinfo id="veh_e8b5dc9a-5749-49d6-927e-1884dc3d3cb5" depart="2409.30" departLane="-592846446#0_0" departPos="79.28" departSpeed="0.77" departDelay="2409.30" arrival="2721.00" arrivalLane="592846446#0_0" arrivalPos="72.90" arrivalSpeed="5.84" duration="311.70" routeLength="73.00" waitingTime="300.20" waitingCount="1" stopTime="0.00" timeLoss="300.31" rerouteNo="0" devices="tripinfo_veh_e8b5dc9a-5749-49d6-927e-1884dc3d3cb5" vType="vehicle" speedFactor="1.05" vaporized=""/>
