<?xml version="1.0" encoding="UTF-8"?>

<!-- generated on 2025-06-01 13:11:04 by Eclipse SUMO sumo Version 1.12.0
<configuration xmlns:xsi="http://www.w3.org/2001/XMLSchema-instance" xsi:noNamespaceSchemaLocation="http://sumo.dlr.de/xsd/sumoConfiguration.xsd">

    <input>
        <net-file value="/app/harta-automatica.net.xml"/>
        <route-files value="/app/results/routes_sim_20.rou.xml"/>
    </input>

    <output>
        <tripinfo-output value="/app/results/tripinfo_sim_20.xml"/>
    </output>

    <time>
        <begin value="0"/>
        <end value="3600"/>
        <step-length value="0.1"/>
    </time>

    <processing>
        <ignore-route-errors value="true"/>
    </processing>

    <report>
        <verbose value="true"/>
        <no-warnings value="true"/>
        <no-step-log value="true"/>
    </report>

    <traci_server>
        <remote-port value="53121"/>
    </traci_server>

    <gui_only>
        <quit-on-end value="true"/>
        <tracker-interval value="0.1"/>
    </gui_only>

</configuration>
-->

<tripinfos xmlns:xsi="http://www.w3.org/2001/XMLSchema-instance" xsi:noNamespaceSchemaLocation="http://sumo.dlr.de/xsd/tripinfo_file.xsd">
    <tripinfo id="veh_21" depart="0.00" departLane="592846449#1_0" departPos="0.10" departSpeed="0.77" departDelay="0.00" arrival="2.00" arrivalLane="-592846449#1_0" arrivalPos="0.20" arrivalSpeed="3.53" duration="2.00" routeLength="4.97" waitingTime="0.00" waitingCount="0" stopTime="0.00" timeLoss="0.68" rerouteNo="0" devices="tripinfo_veh_21" vType="vehicle" speedFactor="1.01" vaporized=""/>
    <tripinfo id="veh_18" depart="0.00" departLane="-413799403#2_0" departPos="79.14" departSpeed="5.56" departDelay="0.00" arrival="2.50" arrivalLane="-413799403#1_0" arrivalPos="0.20" arrivalSpeed="5.55" duration="2.50" routeLength="13.55" waitingTime="0.00" waitingCount="0" stopTime="0.00" timeLoss="0.03" rerouteNo="0" devices="tripinfo_veh_18" vType="vehicle" speedFactor="1.04" vaporized=""/>
    <tripinfo id="veh_25" depart="0.00" departLane="592846446#1_0" departPos="2.80" departSpeed="0.77" departDelay="0.00" arrival="4.20" arrivalLane="675877705_0" arrivalPos="0.20" arrivalSpeed="5.05" duration="4.20" routeLength="15.85" waitingTime="0.00" waitingCount="0" stopTime="0.00" timeLoss="1.02" rerouteNo="0" devices="tripinfo_veh_25" vType="vehicle" speedFactor="0.91" vaporized=""/>
    <tripinfo id="veh_17" depart="0.00" departLane="-413799403#2_0" departPos="64.46" departSpeed="5.56" departDelay="0.00" arrival="6.40" arrivalLane="-675877705_0" arrivalPos="0.20" arrivalSpeed="5.50" duration="6.40" routeLength="29.48" waitingTime="0.00" waitingCount="0" stopTime="0.00" timeLoss="1.01" rerouteNo="0" devices="tripinfo_veh_17" vType="vehicle" speedFactor="1.01" vaporized=""/>
    <tripinfo id="veh_22" depart="0.00" departLane="592846449#2_0" departPos="6.43" departSpeed="0.77" departDelay="0.00" arrival="6.60" arrivalLane="592846449#3_0" arrivalPos="16.77" arrivalSpeed="5.45" duration="6.60" routeLength="26.18" waitingTime="0.00" waitingCount="0" stopTime="0.00" timeLoss="1.86" rerouteNo="0" devices="tripinfo_veh_22" vType="vehicle" speedFactor="1.01" vaporized=""/>
    <tripinfo id="veh_27" depart="2.80" departLane="592846446#1_0" departPos="2.80" departSpeed="0.77" departDelay="2.80" arrival="7.30" arrivalLane="675877705_0" arrivalPos="0.20" arrivalSpeed="5.27" duration="4.50" routeLength="15.85" waitingTime="0.00" waitingCount="0" stopTime="0.00" timeLoss="1.51" rerouteNo="0" devices="tripinfo_veh_27" vType="vehicle" speedFactor="0.96" vaporized=""/>
    <tripinfo id="veh_23" depart="0.00" departLane="592846449#3_0" departPos="4.61" departSpeed="5.56" departDelay="0.00" arrival="7.60" arrivalLane="-592846449#3_0" arrivalPos="16.77" arrivalSpeed="5.53" duration="7.60" routeLength="33.60" waitingTime="0.00" waitingCount="0" stopTime="0.00" timeLoss="1.14" rerouteNo="0" devices="tripinfo_veh_23" vType="vehicle" speedFactor="1.00" vaporized=""/>
    <tripinfo id="veh_24" depart="6.60" departLane="592846449#3_0" departPos="16.67" departSpeed="0.77" departDelay="6.60" arrival="9.00" arrivalLane="592846449#4_0" arrivalPos="0.20" arrivalSpeed="4.68" duration="2.40" routeLength="7.10" waitingTime="0.00" waitingCount="0" stopTime="0.00" timeLoss="1.00" rerouteNo="0" devices="tripinfo_veh_24" vType="vehicle" speedFactor="0.94" vaporized=""/>
    <tripinfo id="veh_16" depart="0.00" departLane="-413799403#2_0" departPos="51.47" departSpeed="5.56" departDelay="0.00" arrival="9.80" arrivalLane="-675877705_0" arrivalPos="0.20" arrivalSpeed="5.49" duration="9.80" routeLength="42.47" waitingTime="0.00" waitingCount="0" stopTime="0.00" timeLoss="2.17" rerouteNo="0" devices="tripinfo_veh_16" vType="vehicle" speedFactor="1.02" vaporized=""/>
    <tripinfo id="veh_20" depart="12.10" departLane="-675877705_0" departPos="0.10" departSpeed="0.77" departDelay="12.10" arrival="17.60" arrivalLane="-592846446#1_0" arrivalPos="2.90" arrivalSpeed="5.55" duration="5.50" routeLength="23.70" waitingTime="0.00" waitingCount="0" stopTime="0.00" timeLoss="1.15" rerouteNo="0" devices="tripinfo_veh_20" vType="vehicle" speedFactor="1.08" vaporized=""/>
    <tripinfo id="veh_b6225d26-18b8-45d5-aa96-ca2f142692cf" depart="0.00" departLane="-592846446#0_0" departPos="79.28" departSpeed="0.77" departDelay="0.00" arrival="18.30" arrivalLane="-413799403#2_0" arrivalPos="84.56" arrivalSpeed="5.42" duration="18.30" routeLength="92.42" waitingTime="0.00" waitingCount="0" stopTime="0.00" timeLoss="1.18" rerouteNo="0" devices="tripinfo_veh_b6225d26-18b8-45d5-aa96-ca2f142692cf" vType="vehicle" speedFactor="0.97" vaporized=""/>
    <tripinfo id="veh_26" depart="0.00" departLane="413799403#2_0" departPos="12.58" departSpeed="5.56" departDelay="0.00" arrival="28.00" arrivalLane="592846446#0_0" arrivalPos="72.90" arrivalSpeed="5.56" duration="28.00" routeLength="147.47" waitingTime="0.00" waitingCount="0" stopTime="0.00" timeLoss="1.26" rerouteNo="0" devices="tripinfo_veh_26" vType="vehicle" speedFactor="1.02" vaporized=""/>
    <tripinfo id="veh_1" depart="0.00" departLane="-413799403#0_0" departPos="311.65" departSpeed="0.77" departDelay="0.00" arrival="60.20" arrivalLane="413799403#0_0" arrivalPos="311.82" arrivalSpeed="5.39" duration="60.20" routeLength="316.59" waitingTime="0.00" waitingCount="0" stopTime="0.00" timeLoss="0.93" rerouteNo="0" devices="tripinfo_veh_1" vType="vehicle" speedFactor="0.97" vaporized=""/>
    <tripinfo id="veh_2" depart="3.00" departLane="-413799403#0_0" departPos="311.65" departSpeed="0.77" departDelay="3.00" arrival="64.90" arrivalLane="413799403#0_0" arrivalPos="311.82" arrivalSpeed="5.56" duration="61.90" routeLength="316.59" waitingTime="0.00" waitingCount="0" stopTime="0.00" timeLoss="4.49" rerouteNo="0" devices="tripinfo_veh_2" vType="vehicle" speedFactor="1.01" vaporized=""/>
    <tripinfo id="veh_3" depart="6.50" departLane="-413799403#0_0" departPos="311.65" departSpeed="0.77" departDelay="6.50" arrival="69.50" arrivalLane="413799403#0_0" arrivalPos="311.82" arrivalSpeed="5.56" duration="63.00" routeLength="316.59" waitingTime="0.00" waitingCount="0" stopTime="0.00" timeLoss="5.56" rerouteNo="0" devices="tripinfo_veh_3" vType="vehicle" speedFactor="1.04" vaporized=""/>
    <tripinfo id="veh_19" depart="9.80" departLane="-413799403#1_0" departPos="0.10" departSpeed="0.77" departDelay="9.80" arrival="70.90" arrivalLane="-413799403#0_0" arrivalPos="311.75" arrivalSpeed="5.40" duration="61.10" routeLength="322.20" waitingTime="0.00" waitingCount="0" stopTime="0.00" timeLoss="1.34" rerouteNo="0" devices="tripinfo_veh_19" vType="vehicle" speedFactor="0.97" vaporized=""/>
    <tripinfo id="veh_4" depart="10.00" departLane="-413799403#0_0" departPos="311.65" departSpeed="0.77" departDelay="10.00" arrival="73.80" arrivalLane="413799403#0_0" arrivalPos="311.82" arrivalSpeed="5.56" duration="63.80" routeLength="316.59" waitingTime="0.00" waitingCount="0" stopTime="0.00" timeLoss="6.35" rerouteNo="0" devices="tripinfo_veh_4" vType="vehicle" speedFactor="1.02" vaporized=""/>
    <tripinfo id="veh_5" depart="13.50" departLane="-413799403#0_0" departPos="311.65" departSpeed="0.77" departDelay="13.50" arrival="80.30" arrivalLane="413799403#0_0" arrivalPos="311.82" arrivalSpeed="5.09" duration="66.80" routeLength="316.59" waitingTime="0.00" waitingCount="0" stopTime="0.00" timeLoss="4.12" rerouteNo="0" devices="tripinfo_veh_5" vType="vehicle" speedFactor="0.92" vaporized=""/>
    <tripinfo id="veh_10" depart="0.00" departLane="-413799403#0_0" departPos="214.92" departSpeed="5.56" departDelay="0.00" arrival="83.90" arrivalLane="413799403#0_0" arrivalPos="311.82" arrivalSpeed="5.55" duration="83.90" routeLength="413.32" waitingTime="0.00" waitingCount="0" stopTime="0.00" timeLoss="9.05" rerouteNo="0" devices="tripinfo_veh_10" vType="vehicle" speedFactor="1.03" vaporized=""/>
    <tripinfo id="veh_6" depart="21.30" departLane="-413799403#0_0" departPos="311.65" departSpeed="0.77" departDelay="21.30" arrival="87.60" arrivalLane="413799403#0_0" arrivalPos="311.82" arrivalSpeed="5.55" duration="66.30" routeLength="316.59" waitingTime="0.00" waitingCount="0" stopTime="0.00" timeLoss="8.86" rerouteNo="0" devices="tripinfo_veh_6" vType="vehicle" speedFactor="1.02" vaporized=""/>
    <tripinfo id="veh_7" depart="24.80" departLane="-413799403#0_0" departPos="311.65" departSpeed="0.77" departDelay="24.80" arrival="92.10" arrivalLane="413799403#0_0" arrivalPos="311.82" arrivalSpeed="5.24" duration="67.30" routeLength="316.59" waitingTime="0.00" waitingCount="0" stopTime="0.00" timeLoss="6.46" rerouteNo="0" devices="tripinfo_veh_7" vType="vehicle" speedFactor="0.94" vaporized=""/>
    <tripinfo id="veh_8" depart="24.80" departLane="-413799403#0_0" departPos="233.33" departSpeed="5.56" departDelay="24.80" arrival="98.40" arrivalLane="413799403#0_0" arrivalPos="311.82" arrivalSpeed="5.56" duration="73.60" routeLength="394.91" waitingTime="0.00" waitingCount="0" stopTime="0.00" timeLoss="2.06" rerouteNo="0" devices="tripinfo_veh_8" vType="vehicle" speedFactor="1.03" vaporized=""/>
    <tripinfo id="veh_9" depart="24.80" departLane="-413799403#0_0" departPos="214.92" departSpeed="5.56" departDelay="24.80" arrival="104.00" arrivalLane="413799403#0_0" arrivalPos="311.82" arrivalSpeed="5.56" duration="79.20" routeLength="413.32" waitingTime="0.00" waitingCount="0" stopTime="0.00" timeLoss="4.34" rerouteNo="0" devices="tripinfo_veh_9" vType="vehicle" speedFactor="1.00" vaporized=""/>
    <tripinfo id="veh_11" depart="26.60" departLane="-413799403#0_0" departPos="214.92" departSpeed="5.56" departDelay="26.60" arrival="109.00" arrivalLane="413799403#0_0" arrivalPos="311.82" arrivalSpeed="5.56" duration="82.40" routeLength="413.32" waitingTime="0.00" waitingCount="0" stopTime="0.00" timeLoss="7.57" rerouteNo="0" devices="tripinfo_veh_11" vType="vehicle" speedFactor="1.05" vaporized=""/>
    <tripinfo id="veh_12" depart="29.40" departLane="-413799403#0_0" departPos="214.92" departSpeed="5.56" departDelay="29.40" arrival="113.60" arrivalLane="413799403#0_0" arrivalPos="311.82" arrivalSpeed="5.56" duration="84.20" routeLength="413.32" waitingTime="0.00" waitingCount="0" stopTime="0.00" timeLoss="9.33" rerouteNo="0" devices="tripinfo_veh_12" vType="vehicle" speedFactor="1.01" vaporized=""/>
    <tripinfo id="veh_13" depart="33.60" departLane="-413799403#0_0" departPos="218.86" departSpeed="3.33" departDelay="33.60" arrival="118.00" arrivalLane="413799403#0_0" arrivalPos="311.82" arrivalSpeed="5.56" duration="84.40" routeLength="409.38" waitingTime="0.00" waitingCount="0" stopTime="0.00" timeLoss="10.24" rerouteNo="0" devices="tripinfo_veh_13" vType="vehicle" speedFactor="1.02" vaporized=""/>
    <tripinfo id="veh_14" depart="39.40" departLane="-413799403#0_0" departPos="229.88" departSpeed="5.56" departDelay="39.40" arrival="122.20" arrivalLane="413799403#0_0" arrivalPos="311.82" arrivalSpeed="5.56" duration="82.80" routeLength="398.36" waitingTime="0.00" waitingCount="0" stopTime="0.00" timeLoss="10.69" rerouteNo="0" devices="tripinfo_veh_14" vType="vehicle" speedFactor="1.06" vaporized=""/>
    <tripinfo id="veh_15" depart="62.00" departLane="-413799403#0_0" departPos="311.65" departSpeed="0.77" departDelay="62.00" arrival="126.40" arrivalLane="413799403#0_0" arrivalPos="311.82" arrivalSpeed="5.53" duration="64.40" routeLength="316.59" waitingTime="0.00" waitingCount="0" stopTime="0.00" timeLoss="6.74" rerouteNo="0" devices="tripinfo_veh_15" vType="vehicle" speedFactor="1.00" vaporized=""/>
    <tripinfo id="veh_78d2d987-a03b-4967-97cd-5eb1398e6285" depart="2.30" departLane="-592846446#0_0" departPos="79.28" departSpeed="0.77" departDelay="2.30" arrival="314.60" arrivalLane="592846446#0_0" arrivalPos="72.90" arrivalSpeed="5.56" duration="312.30" routeLength="73.00" waitingTime="300.20" waitingCount="1" stopTime="0.00" timeLoss="300.28" rerouteNo="0" devices="tripinfo_veh_78d2d987-a03b-4967-97cd-5eb1398e6285" vType="vehicle" speedFactor="1.07" vaporized=""/>
    <tripinfo id="veh_ff3c4caf-0a6e-48bf-a90d-d341fc637713" depart="302.60" departLane="-592846446#0_0" departPos="79.28" departSpeed="0.77" departDelay="302.60" arrival="615.30" arrivalLane="592846446#0_0" arrivalPos="72.90" arrivalSpeed="5.37" duration="312.70" routeLength="73.00" waitingTime="300.20" waitingCount="1" stopTime="0.00" timeLoss="300.28" rerouteNo="0" devices="tripinfo_veh_ff3c4caf-0a6e-48bf-a90d-d341fc637713" vType="vehicle" speedFactor="0.97" vaporized=""/>
    <tripinfo id="veh_16cef614-27e3-4b5a-80f9-9bf3ddde5f64" depart="602.90" departLane="-592846446#0_0" departPos="79.28" departSpeed="0.77" departDelay="602.90" arrival="620.70" arrivalLane="-413799403#2_0" arrivalPos="84.56" arrivalSpeed="5.56" duration="17.80" routeLength="92.42" waitingTime="0.00" waitingCount="0" stopTime="0.00" timeLoss="1.15" rerouteNo="0" devices="tripinfo_veh_16cef614-27e3-4b5a-80f9-9bf3ddde5f64" vType="vehicle" speedFactor="1.09" vaporized=""/>
    <tripinfo id="veh_321cca65-85aa-4871-8340-477ef21a0889" depart="605.20" departLane="-592846446#0_0" departPos="79.28" departSpeed="0.77" departDelay="605.20" arrival="917.50" arrivalLane="592846446#0_0" arrivalPos="72.90" arrivalSpeed="5.56" duration="312.30" routeLength="73.00" waitingTime="300.20" waitingCount="1" stopTime="0.00" timeLoss="300.28" rerouteNo="0" devices="tripinfo_veh_321cca65-85aa-4871-8340-477ef21a0889" vType="vehicle" speedFactor="1.08" vaporized=""/>
    <tripinfo id="veh_86caf304-fcda-4d3e-b4eb-ff0224db7111" depart="905.50" departLane="-592846446#0_0" departPos="79.28" departSpeed="0.77" departDelay="905.50" arrival="1217.80" arrivalLane="592846446#0_0" arrivalPos="72.90" arrivalSpeed="5.56" duration="312.30" routeLength="73.00" waitingTime="300.20" waitingCount="1" stopTime="0.00" timeLoss="300.28" rerouteNo="0" devices="tripinfo_veh_86caf304-fcda-4d3e-b4eb-ff0224db7111" vType="vehicle" speedFactor="1.00" vaporized=""/>
    <tripinfo id="veh_dd3cb913-c765-4fbd-a8f2-c3a4f6b93923" depart="1205.80" departLane="-592846446#0_0" departPos="79.28" departSpeed="0.77" departDelay="1205.80" arrival="1223.60" arrivalLane="-413799403#2_0" arrivalPos="84.56" arrivalSpeed="5.56" duration="17.80" routeLength="92.42" waitingTime="0.00" waitingCount="0" stopTime="0.00" timeLoss="1.15" rerouteNo="0" devices="tripinfo_veh_dd3cb913-c765-4fbd-a8f2-c3a4f6b93923" vType="vehicle" speedFactor="1.09" vaporized=""/>
    <tripinfo id="veh_5f94dcce-f755-4c16-9159-c23d2c98e6b3" depart="1208.10" departLane="-592846446#0_0" departPos="79.28" departSpeed="0.77" departDelay="1208.10" arrival="1520.40" arrivalLane="592846446#0_0" arrivalPos="72.90" arrivalSpeed="5.55" duration="312.30" routeLength="73.00" waitingTime="300.20" waitingCount="1" stopTime="0.00" timeLoss="300.28" rerouteNo="0" devices="tripinfo_veh_5f94dcce-f755-4c16-9159-c23d2c98e6b3" vType="vehicle" speedFactor="1.00" vaporized=""/>
    <tripinfo id="veh_59563556-f2c3-4ad2-9ba9-4ecda0753172" depart="1508.40" departLane="-592846446#0_0" departPos="79.28" departSpeed="0.77" departDelay="1508.40" arrival="1820.70" arrivalLane="592846446#0_0" arrivalPos="72.90" arrivalSpeed="5.56" duration="312.30" routeLength="73.00" waitingTime="300.20" waitingCount="1" stopTime="0.00" timeLoss="300.28" rerouteNo="0" devices="tripinfo_veh_59563556-f2c3-4ad2-9ba9-4ecda0753172" vType="vehicle" speedFactor="1.01" vaporized=""/>
    <tripinfo id="veh_aa90fec5-4e0e-4ad2-85c4-99f429a3b4d2" depart="1808.70" departLane="-592846446#0_0" departPos="79.28" departSpeed="0.77" departDelay="1808.70" arrival="2121.10" arrivalLane="592846446#0_0" arrivalPos="72.90" arrivalSpeed="5.49" duration="312.40" routeLength="73.00" waitingTime="300.20" waitingCount="1" stopTime="0.00" timeLoss="300.28" rerouteNo="0" devices="tripinfo_veh_aa90fec5-4e0e-4ad2-85c4-99f429a3b4d2" vType="vehicle" speedFactor="0.99" vaporized=""/>
    <tripinfo id="veh_4ff6e212-5768-4da4-bea9-a785f0f40727" depart="2109.00" departLane="-592846446#0_0" departPos="79.28" departSpeed="0.77" departDelay="2109.00" arrival="2421.30" arrivalLane="592846446#0_0" arrivalPos="72.90" arrivalSpeed="5.56" duration="312.30" routeLength="73.00" waitingTime="300.20" waitingCount="1" stopTime="0.00" timeLoss="300.28" rerouteNo="0" devices="tripinfo_veh_4ff6e212-5768-4da4-bea9-a785f0f40727" vType="vehicle" speedFactor="1.09" vaporized=""/>
    <tripinfo id="veh_e8b5dc9a-5749-49d6-927e-1884dc3d3cb5" depart="2409.30" departLane="-592846446#0_0" departPos="79.28" departSpeed="0.77" departDelay="2409.30" arrival="2427.10" arrivalLane="-413799403#2_0" arrivalPos="84.56" arrivalSpeed="5.56" duration="17.80" routeLength="92.42" waitingTime="0.00" waitingCount="0" stopTime="0.00" timeLoss="1.15" rerouteNo="0" devices="tripinfo_veh_e8b5dc9a-5749-49d6-927e-1884dc3d3cb5" vType="vehicle" speedFactor="1.05" vaporized=""/>
    <tripinfo id="veh_e56566d4-a5f0-4d1f-83e5-85de4bfda59b" depart="2412.10" departLane="-592846446#0_0" departPos="79.28" departSpeed="0.77" departDelay="2412.10" arrival="2431.90" arrivalLane="-413799403#2_0" arrivalPos="84.56" arrivalSpeed="5.28" duration="19.80" routeLength="92.42" waitingTime="0.00" waitingCount="0" stopTime="0.00" timeLoss="2.26" rerouteNo="0" devices="tripinfo_veh_e56566d4-a5f0-4d1f-83e5-85de4bfda59b" vType="vehicle" speedFactor="0.95" vaporized=""/>
    <tripinfo id="veh_6459dab1-9d9f-49c5-a66b-b2ecd7140dfa" depart="2415.30" departLane="-592846446#0_0" departPos="79.28" departSpeed="0.77" departDelay="2415.30" arrival="2435.50" arrivalLane="-413799403#2_0" arrivalPos="84.56" arrivalSpeed="5.55" duration="20.20" routeLength="92.42" waitingTime="0.00" waitingCount="0" stopTime="0.00" timeLoss="3.50" rerouteNo="0" devices="tripinfo_veh_6459dab1-9d9f-49c5-a66b-b2ecd7140dfa" vType="vehicle" speedFactor="1.02" vaporized=""/>
    <tripinfo id="veh_839753f5-70af-4e11-a077-9d38f4021fe6" depart="2418.70" departLane="-592846446#0_0" departPos="79.28" departSpeed="0.77" departDelay="2418.70" arrival="2439.20" arrivalLane="-413799403#2_0" arrivalPos="84.56" arrivalSpeed="5.44" duration="20.50" routeLength="92.42" waitingTime="0.00" waitingCount="0" stopTime="0.00" timeLoss="3.51" rerouteNo="0" devices="tripinfo_veh_839753f5-70af-4e11-a077-9d38f4021fe6" vType="vehicle" speedFactor="0.98" vaporized=""/>
    <tripinfo id="veh_d5e81ffa-383d-478f-a017-489f849eebbd" depart="2421.60" departLane="-592846446#0_0" departPos="79.28" departSpeed="0.77" departDelay="2421.60" arrival="2733.90" arrivalLane="592846446#0_0" arrivalPos="72.90" arrivalSpeed="5.56" duration="312.30" routeLength="73.00" waitingTime="300.20" waitingCount="1" stopTime="0.00" timeLoss="300.28" rerouteNo="0" devices="tripinfo_veh_d5e81ffa-383d-478f-a017-489f849eebbd" vType="vehicle" speedFactor="1.05" vaporized=""/>
    <tripinfo id="veh_b75067fe-1f5d-4544-988c-4143987e2ee8" depart="2721.90" departLane="-592846446#0_0" departPos="79.28" departSpeed="0.77" departDelay="2721.90" arrival="2739.70" arrivalLane="-413799403#2_0" arrivalPos="84.56" arrivalSpeed="5.56" duration="17.80" routeLength="92.42" waitingTime="0.00" waitingCount="0" stopTime="0.00" timeLoss="1.15" rerouteNo="0" devices="tripinfo_veh_b75067fe-1f5d-4544-988c-4143987e2ee8" vType="vehicle" speedFactor="1.02" vaporized=""/>
