<?xml version="1.0" encoding="UTF-8"?>

<!-- generated on 2025-06-01 13:11:04 by Eclipse SUMO sumo Version 1.12.0
<configuration xmlns:xsi="http://www.w3.org/2001/XMLSchema-instance" xsi:noNamespaceSchemaLocation="http://sumo.dlr.de/xsd/sumoConfiguration.xsd">

    <input>
        <net-file value="/app/harta-automatica.net.xml"/>
        <route-files value="/app/results/routes_sim_30.rou.xml"/>
    </input>

    <output>
        <tripinfo-output value="/app/results/tripinfo_sim_30.xml"/>
    </output>

    <time>
        <begin value="0"/>
        <end value="3600"/>
        <step-length value="0.1"/>
    </time>

    <processing>
        <ignore-route-errors value="true"/>
    </processing>

    <report>
        <verbose value="true"/>
        <no-warnings value="true"/>
        <no-step-log value="true"/>
    </report>

    <traci_server>
        <remote-port value="56587"/>
    </traci_server>

    <gui_only>
        <quit-on-end value="true"/>
        <tracker-interval value="0.1"/>
    </gui_only>

</configuration>
-->

<tripinfos xmlns:xsi="http://www.w3.org/2001/XMLSchema-instance" xsi:noNamespaceSchemaLocation="http://sumo.dlr.de/xsd/tripinfo_file.xsd">
    <tripinfo id="veh_22" depart="0.00" departLane="592846449#2_0" departPos="6.43" departSpeed="0.77" departDelay="0.00" arrival="3.40" arrivalLane="-592846449#2_0" arrivalPos="6.53" arrivalSpeed="5.15" duration="3.40" routeLength="11.30" waitingTime="0.00" waitingCount="0" stopTime="0.00" timeLoss="0.95" rerouteNo="0" devices="tripinfo_veh_22" vType="vehicle" speedFactor="1.01" vaporized=""/>
    <tripinfo id="veh_25" depart="0.00" departLane="592846446#1_0" departPos="2.80" departSpeed="0.77" departDelay="0.00" arrival="4.20" arrivalLane="675877705_0" arrivalPos="0.20" arrivalSpeed="5.05" duration="4.20" routeLength="15.85" waitingTime="0.00" waitingCount="0" stopTime="0.00" timeLoss="1.02" rerouteNo="0" devices="tripinfo_veh_25" vType="vehicle" speedFactor="0.91" vaporized=""/>
    <tripinfo id="veh_17" depart="0.00" departLane="-413799403#2_0" departPos="64.46" departSpeed="8.33" departDelay="0.00" arrival="5.50" arrivalLane="-675877705_0" arrivalPos="0.20" arrivalSpeed="6.64" duration="5.50" routeLength="29.48" waitingTime="0.00" waitingCount="0" stopTime="0.00" timeLoss="1.94" rerouteNo="0" devices="tripinfo_veh_17" vType="vehicle" speedFactor="1.50" vaporized=""/>
    <tripinfo id="veh_24" depart="2.50" departLane="592846449#3_0" departPos="16.67" departSpeed="0.77" departDelay="2.50" arrival="5.60" arrivalLane="592846449#4_0" arrivalPos="0.20" arrivalSpeed="4.61" duration="3.10" routeLength="7.10" waitingTime="0.40" waitingCount="1" stopTime="0.00" timeLoss="1.75" rerouteNo="0" devices="tripinfo_veh_24" vType="vehicle" speedFactor="0.94" vaporized=""/>
    <tripinfo id="veh_23" depart="0.00" departLane="592846449#3_0" departPos="4.61" departSpeed="8.33" departDelay="0.00" arrival="6.30" arrivalLane="-710632022_0" arrivalPos="32.33" arrivalSpeed="8.32" duration="6.30" routeLength="49.62" waitingTime="0.00" waitingCount="0" stopTime="0.00" timeLoss="0.20" rerouteNo="0" devices="tripinfo_veh_23" vType="vehicle" speedFactor="1.50" vaporized=""/>
    <tripinfo id="veh_20" depart="1.80" departLane="-675877705_0" departPos="0.10" departSpeed="0.77" departDelay="1.80" arrival="7.20" arrivalLane="676167962_0" arrivalPos="2.64" arrivalSpeed="5.98" duration="5.40" routeLength="24.74" waitingTime="0.00" waitingCount="0" stopTime="0.00" timeLoss="1.28" rerouteNo="0" devices="tripinfo_veh_20" vType="vehicle" speedFactor="1.08" vaporized=""/>
    <tripinfo id="veh_27" depart="2.30" departLane="592846446#1_0" departPos="2.80" departSpeed="0.77" departDelay="2.30" arrival="8.60" arrivalLane="676167961_0" arrivalPos="0.20" arrivalSpeed="5.31" duration="6.30" routeLength="20.29" waitingTime="0.70" waitingCount="1" stopTime="0.00" timeLoss="2.46" rerouteNo="0" devices="tripinfo_veh_27" vType="vehicle" speedFactor="0.96" vaporized=""/>
    <tripinfo id="veh_19" depart="12.10" departLane="-413799403#1_0" departPos="0.10" departSpeed="0.77" departDelay="12.10" arrival="14.10" arrivalLane="413799403#1_0" arrivalPos="0.20" arrivalSpeed="3.43" duration="2.00" routeLength="4.97" waitingTime="0.00" waitingCount="0" stopTime="0.00" timeLoss="0.63" rerouteNo="0" devices="tripinfo_veh_19" vType="vehicle" speedFactor="0.97" vaporized=""/>
    <tripinfo id="veh_21" depart="0.00" departLane="592846449#1_0" departPos="0.10" departSpeed="0.77" departDelay="0.00" arrival="14.60" arrivalLane="675849497_0" arrivalPos="65.53" arrivalSpeed="5.61" duration="14.60" routeLength="75.05" waitingTime="0.00" waitingCount="0" stopTime="0.00" timeLoss="1.17" rerouteNo="0" devices="tripinfo_veh_21" vType="vehicle" speedFactor="1.01" vaporized=""/>
    <tripinfo id="veh_b6225d26-18b8-45d5-aa96-ca2f142692cf" depart="0.00" departLane="-592846446#0_0" departPos="79.28" departSpeed="0.77" departDelay="0.00" arrival="18.30" arrivalLane="-413799403#2_0" arrivalPos="84.56" arrivalSpeed="5.42" duration="18.30" routeLength="92.42" waitingTime="0.00" waitingCount="0" stopTime="0.00" timeLoss="1.20" rerouteNo="0" devices="tripinfo_veh_b6225d26-18b8-45d5-aa96-ca2f142692cf" vType="vehicle" speedFactor="0.97" vaporized=""/>
    <tripinfo id="veh_78d2d987-a03b-4967-97cd-5eb1398e6285" depart="2.80" departLane="-592846446#0_0" departPos="79.28" departSpeed="0.77" departDelay="2.80" arrival="21.70" arrivalLane="-413799403#2_0" arrivalPos="84.56" arrivalSpeed="5.92" duration="18.90" routeLength="92.42" waitingTime="0.00" waitingCount="0" stopTime="0.00" timeLoss="3.24" rerouteNo="0" devices="tripinfo_veh_78d2d987-a03b-4967-97cd-5eb1398e6285" vType="vehicle" speedFactor="1.07" vaporized=""/>
    <tripinfo id="veh_ff3c4caf-0a6e-48bf-a90d-d341fc637713" depart="6.00" departLane="-592846446#0_0" departPos="79.28" departSpeed="0.77" departDelay="6.00" arrival="26.00" arrivalLane="-413799403#2_0" arrivalPos="84.56" arrivalSpeed="5.37" duration="20.00" routeLength="92.42" waitingTime="0.00" waitingCount="0" stopTime="0.00" timeLoss="2.78" rerouteNo="0" devices="tripinfo_veh_ff3c4caf-0a6e-48bf-a90d-d341fc637713" vType="vehicle" speedFactor="0.97" vaporized=""/>
    <tripinfo id="veh_1" depart="0.00" departLane="-413799403#0_0" departPos="311.65" departSpeed="0.77" departDelay="0.00" arrival="60.20" arrivalLane="413799403#0_0" arrivalPos="311.82" arrivalSpeed="5.39" duration="60.20" routeLength="316.59" waitingTime="0.00" waitingCount="0" stopTime="0.00" timeLoss="0.93" rerouteNo="0" devices="tripinfo_veh_1" vType="vehicle" speedFactor="0.97" vaporized=""/>
    <tripinfo id="veh_2" depart="3.00" departLane="-413799403#0_0" departPos="311.65" departSpeed="0.77" departDelay="3.00" arrival="64.80" arrivalLane="413799403#0_0" arrivalPos="311.82" arrivalSpeed="5.59" duration="61.80" routeLength="316.59" waitingTime="0.00" waitingCount="0" stopTime="0.00" timeLoss="4.66" rerouteNo="0" devices="tripinfo_veh_2" vType="vehicle" speedFactor="1.01" vaporized=""/>
    <tripinfo id="veh_3" depart="6.50" departLane="-413799403#0_0" departPos="311.65" departSpeed="0.77" departDelay="6.50" arrival="68.60" arrivalLane="413799403#0_0" arrivalPos="311.82" arrivalSpeed="5.79" duration="62.10" routeLength="316.59" waitingTime="0.00" waitingCount="0" stopTime="0.00" timeLoss="6.97" rerouteNo="0" devices="tripinfo_veh_3" vType="vehicle" speedFactor="1.04" vaporized=""/>
    <tripinfo id="veh_10" depart="0.00" departLane="-413799403#0_0" departPos="214.92" departSpeed="8.33" departDelay="0.00" arrival="70.90" arrivalLane="413799403#0_0" arrivalPos="311.82" arrivalSpeed="7.90" duration="70.90" routeLength="413.32" waitingTime="0.00" waitingCount="0" stopTime="0.00" timeLoss="20.90" rerouteNo="0" devices="tripinfo_veh_10" vType="vehicle" speedFactor="1.50" vaporized=""/>
    <tripinfo id="veh_4" depart="14.70" departLane="-413799403#0_0" departPos="311.65" departSpeed="0.77" departDelay="14.70" arrival="75.70" arrivalLane="413799403#0_0" arrivalPos="311.82" arrivalSpeed="5.64" duration="61.00" routeLength="316.59" waitingTime="0.00" waitingCount="0" stopTime="0.00" timeLoss="4.46" rerouteNo="0" devices="tripinfo_veh_4" vType="vehicle" speedFactor="1.02" vaporized=""/>
    <tripinfo id="veh_5" depart="18.00" departLane="-413799403#0_0" departPos="311.65" departSpeed="0.77" departDelay="18.00" arrival="83.60" arrivalLane="413799403#0_0" arrivalPos="311.82" arrivalSpeed="5.09" duration="65.60" routeLength="316.59" waitingTime="0.00" waitingCount="0" stopTime="0.00" timeLoss="2.91" rerouteNo="0" devices="tripinfo_veh_5" vType="vehicle" speedFactor="0.92" vaporized=""/>
    <tripinfo id="veh_6" depart="21.50" departLane="-413799403#0_0" departPos="311.65" departSpeed="0.77" departDelay="21.50" arrival="87.00" arrivalLane="413799403#0_0" arrivalPos="311.82" arrivalSpeed="5.68" duration="65.50" routeLength="316.59" waitingTime="0.00" waitingCount="0" stopTime="0.00" timeLoss="9.36" rerouteNo="0" devices="tripinfo_veh_6" vType="vehicle" speedFactor="1.02" vaporized=""/>
    <tripinfo id="veh_7" depart="25.10" departLane="-413799403#0_0" departPos="311.65" departSpeed="0.77" departDelay="25.10" arrival="91.80" arrivalLane="413799403#0_0" arrivalPos="311.82" arrivalSpeed="5.24" duration="66.70" routeLength="316.59" waitingTime="0.00" waitingCount="0" stopTime="0.00" timeLoss="5.82" rerouteNo="0" devices="tripinfo_veh_7" vType="vehicle" speedFactor="0.94" vaporized=""/>
    <tripinfo id="veh_8" depart="25.10" departLane="-413799403#0_0" departPos="233.33" departSpeed="8.33" departDelay="25.10" arrival="94.00" arrivalLane="413799403#0_0" arrivalPos="311.82" arrivalSpeed="7.72" duration="68.90" routeLength="394.91" waitingTime="0.00" waitingCount="0" stopTime="0.00" timeLoss="21.17" rerouteNo="0" devices="tripinfo_veh_8" vType="vehicle" speedFactor="1.50" vaporized=""/>
    <tripinfo id="veh_9" depart="25.10" departLane="-413799403#0_0" departPos="214.92" departSpeed="8.33" departDelay="25.10" arrival="96.40" arrivalLane="413799403#0_0" arrivalPos="311.82" arrivalSpeed="8.05" duration="71.30" routeLength="413.32" waitingTime="0.00" waitingCount="0" stopTime="0.00" timeLoss="21.31" rerouteNo="0" devices="tripinfo_veh_9" vType="vehicle" speedFactor="1.50" vaporized=""/>
    <tripinfo id="veh_11" depart="26.30" departLane="-413799403#0_0" departPos="214.92" departSpeed="8.33" departDelay="26.30" arrival="98.80" arrivalLane="413799403#0_0" arrivalPos="311.82" arrivalSpeed="8.13" duration="72.50" routeLength="413.32" waitingTime="0.00" waitingCount="0" stopTime="0.00" timeLoss="22.54" rerouteNo="0" devices="tripinfo_veh_11" vType="vehicle" speedFactor="1.50" vaporized=""/>
    <tripinfo id="veh_12" depart="28.20" departLane="-413799403#0_0" departPos="214.92" departSpeed="8.33" departDelay="28.20" arrival="101.30" arrivalLane="413799403#0_0" arrivalPos="311.82" arrivalSpeed="8.18" duration="73.10" routeLength="413.32" waitingTime="0.00" waitingCount="0" stopTime="0.00" timeLoss="23.16" rerouteNo="0" devices="tripinfo_veh_12" vType="vehicle" speedFactor="1.50" vaporized=""/>
    <tripinfo id="veh_13" depart="31.50" departLane="-413799403#0_0" departPos="218.86" departSpeed="3.33" departDelay="31.50" arrival="107.90" arrivalLane="413799403#0_0" arrivalPos="311.82" arrivalSpeed="5.69" duration="76.40" routeLength="409.38" waitingTime="0.00" waitingCount="0" stopTime="0.00" timeLoss="4.00" rerouteNo="0" devices="tripinfo_veh_13" vType="vehicle" speedFactor="1.02" vaporized=""/>
    <tripinfo id="veh_14" depart="36.40" departLane="-413799403#0_0" departPos="229.88" departSpeed="6.94" departDelay="36.40" arrival="110.60" arrivalLane="413799403#0_0" arrivalPos="311.82" arrivalSpeed="6.88" duration="74.20" routeLength="398.36" waitingTime="0.00" waitingCount="0" stopTime="0.00" timeLoss="16.37" rerouteNo="0" devices="tripinfo_veh_14" vType="vehicle" speedFactor="1.25" vaporized=""/>
    <tripinfo id="veh_15" depart="56.00" departLane="-413799403#0_0" departPos="311.65" departSpeed="0.77" departDelay="56.00" arrival="117.00" arrivalLane="413799403#0_0" arrivalPos="311.82" arrivalSpeed="5.54" duration="61.00" routeLength="316.59" waitingTime="0.00" waitingCount="0" stopTime="0.00" timeLoss="3.33" rerouteNo="0" devices="tripinfo_veh_15" vType="vehicle" speedFactor="1.00" vaporized=""/>
    <tripinfo id="veh_18" depart="4.60" departLane="-413799403#2_0" departPos="79.14" departSpeed="5.70" departDelay="4.60" arrival="315.10" arrivalLane="413799403#2_0" arrivalPos="84.56" arrivalSpeed="5.14" duration="310.50" routeLength="94.65" waitingTime="288.20" waitingCount="1" stopTime="0.00" timeLoss="293.40" rerouteNo="0" devices="tripinfo_veh_18" vType="vehicle" speedFactor="1.03" vaporized=""/>
    <tripinfo id="veh_16" depart="4.60" departLane="-413799403#2_0" departPos="51.47" departSpeed="8.33" departDelay="4.60" arrival="317.80" arrivalLane="413799403#2_0" arrivalPos="84.56" arrivalSpeed="7.22" duration="313.20" routeLength="122.32" waitingTime="287.60" waitingCount="1" stopTime="0.00" timeLoss="298.21" rerouteNo="0" devices="tripinfo_veh_16" vType="vehicle" speedFactor="1.50" vaporized=""/>
    <tripinfo id="veh_16cef614-27e3-4b5a-80f9-9bf3ddde5f64" depart="8.80" departLane="-592846446#0_0" departPos="79.28" departSpeed="0.77" departDelay="8.80" arrival="320.20" arrivalLane="592846446#0_0" arrivalPos="72.90" arrivalSpeed="6.06" duration="311.40" routeLength="73.00" waitingTime="300.20" waitingCount="1" stopTime="0.00" timeLoss="300.34" rerouteNo="0" devices="tripinfo_veh_16cef614-27e3-4b5a-80f9-9bf3ddde5f64" vType="vehicle" speedFactor="1.09" vaporized=""/>
    <tripinfo id="veh_26" depart="0.00" departLane="413799403#2_0" departPos="12.58" departSpeed="8.33" departDelay="0.00" arrival="321.80" arrivalLane="-413799403#2_0" arrivalPos="84.56" arrivalSpeed="8.33" duration="321.80" routeLength="156.54" waitingTime="300.10" waitingCount="1" stopTime="0.00" timeLoss="303.78" rerouteNo="0" devices="tripinfo_veh_26" vType="vehicle" speedFactor="1.50" vaporized=""/>
    <tripinfo id="veh_321cca65-85aa-4871-8340-477ef21a0889" depart="309.10" departLane="-592846446#0_0" departPos="79.28" departSpeed="0.77" departDelay="309.10" arrival="620.60" arrivalLane="592846446#0_0" arrivalPos="72.90" arrivalSpeed="5.99" duration="311.50" routeLength="73.00" waitingTime="300.20" waitingCount="1" stopTime="0.00" timeLoss="300.33" rerouteNo="0" devices="tripinfo_veh_321cca65-85aa-4871-8340-477ef21a0889" vType="vehicle" speedFactor="1.08" vaporized=""/>
    <tripinfo id="veh_86caf304-fcda-4d3e-b4eb-ff0224db7111" depart="609.40" departLane="-592846446#0_0" departPos="79.28" departSpeed="0.77" departDelay="609.40" arrival="627.20" arrivalLane="-413799403#2_0" arrivalPos="84.56" arrivalSpeed="5.57" duration="17.80" routeLength="92.42" waitingTime="0.00" waitingCount="0" stopTime="0.00" timeLoss="1.16" rerouteNo="0" devices="tripinfo_veh_86caf304-fcda-4d3e-b4eb-ff0224db7111" vType="vehicle" speedFactor="1.00" vaporized=""/>
    <tripinfo id="veh_dd3cb913-c765-4fbd-a8f2-c3a4f6b93923" depart="612.20" departLane="-592846446#0_0" departPos="79.28" departSpeed="0.77" departDelay="612.20" arrival="630.60" arrivalLane="-413799403#2_0" arrivalPos="84.56" arrivalSpeed="6.03" duration="18.40" routeLength="92.42" waitingTime="0.00" waitingCount="0" stopTime="0.00" timeLoss="3.06" rerouteNo="0" devices="tripinfo_veh_dd3cb913-c765-4fbd-a8f2-c3a4f6b93923" vType="vehicle" speedFactor="1.09" vaporized=""/>
    <tripinfo id="veh_5f94dcce-f755-4c16-9159-c23d2c98e6b3" depart="614.90" departLane="-592846446#0_0" departPos="79.28" departSpeed="0.77" departDelay="614.90" arrival="927.20" arrivalLane="592846446#0_0" arrivalPos="72.90" arrivalSpeed="5.55" duration="312.30" routeLength="73.00" waitingTime="300.20" waitingCount="1" stopTime="0.00" timeLoss="300.28" rerouteNo="0" devices="tripinfo_veh_5f94dcce-f755-4c16-9159-c23d2c98e6b3" vType="vehicle" speedFactor="1.00" vaporized=""/>
    <tripinfo id="veh_59563556-f2c3-4ad2-9ba9-4ecda0753172" depart="915.20" departLane="-592846446#0_0" departPos="79.28" departSpeed="0.77" departDelay="915.20" arrival="1227.40" arrivalLane="592846446#0_0" arrivalPos="72.90" arrivalSpeed="5.61" duration="312.20" routeLength="73.00" waitingTime="300.20" waitingCount="1" stopTime="0.00" timeLoss="300.29" rerouteNo="0" devices="tripinfo_veh_59563556-f2c3-4ad2-9ba9-4ecda0753172" vType="vehicle" speedFactor="1.01" vaporized=""/>
    <tripinfo id="veh_aa90fec5-4e0e-4ad2-85c4-99f429a3b4d2" depart="1215.50" departLane="-592846446#0_0" departPos="79.28" departSpeed="0.77" departDelay="1215.50" arrival="1233.50" arrivalLane="-413799403#2_0" arrivalPos="84.56" arrivalSpeed="5.49" duration="18.00" routeLength="92.42" waitingTime="0.00" waitingCount="0" stopTime="0.00" timeLoss="1.13" rerouteNo="0" devices="tripinfo_veh_aa90fec5-4e0e-4ad2-85c4-99f429a3b4d2" vType="vehicle" speedFactor="0.99" vaporized=""/>
    <tripinfo id="veh_4ff6e212-5768-4da4-bea9-a785f0f40727" depart="1217.80" departLane="-592846446#0_0" departPos="79.28" departSpeed="0.77" departDelay="1217.80" arrival="1529.20" arrivalLane="592846446#0_0" arrivalPos="72.90" arrivalSpeed="6.06" duration="311.40" routeLength="73.00" waitingTime="300.20" waitingCount="1" stopTime="0.00" timeLoss="300.34" rerouteNo="0" devices="tripinfo_veh_4ff6e212-5768-4da4-bea9-a785f0f40727" vType="vehicle" speedFactor="1.09" vaporized=""/>
    <tripinfo id="veh_e8b5dc9a-5749-49d6-927e-1884dc3d3cb5" depart="1518.10" departLane="-592846446#0_0" departPos="79.28" departSpeed="0.77" departDelay="1518.10" arrival="1535.20" arrivalLane="-413799403#2_0" arrivalPos="84.56" arrivalSpeed="5.84" duration="17.10" routeLength="92.42" waitingTime="0.00" waitingCount="0" stopTime="0.00" timeLoss="1.23" rerouteNo="0" devices="tripinfo_veh_e8b5dc9a-5749-49d6-927e-1884dc3d3cb5" vType="vehicle" speedFactor="1.05" vaporized=""/>
    <tripinfo id="veh_e56566d4-a5f0-4d1f-83e5-85de4bfda59b" depart="1520.40" departLane="-592846446#0_0" departPos="79.28" departSpeed="0.77" departDelay="1520.40" arrival="1833.30" arrivalLane="592846446#0_0" arrivalPos="72.90" arrivalSpeed="5.28" duration="312.90" routeLength="73.00" waitingTime="300.20" waitingCount="1" stopTime="0.00" timeLoss="300.28" rerouteNo="0" devices="tripinfo_veh_e56566d4-a5f0-4d1f-83e5-85de4bfda59b" vType="vehicle" speedFactor="0.95" vaporized=""/>
    <tripinfo id="veh_6459dab1-9d9f-49c5-a66b-b2ecd7140dfa" depart="1820.70" departLane="-592846446#0_0" departPos="79.28" departSpeed="0.77" departDelay="1820.70" arrival="1838.30" arrivalLane="-413799403#2_0" arrivalPos="84.56" arrivalSpeed="5.64" duration="17.60" routeLength="92.42" waitingTime="0.00" waitingCount="0" stopTime="0.00" timeLoss="1.18" rerouteNo="0" devices="tripinfo_veh_6459dab1-9d9f-49c5-a66b-b2ecd7140dfa" vType="vehicle" speedFactor="1.02" vaporized=""/>
    <tripinfo id="veh_839753f5-70af-4e11-a077-9d38f4021fe6" depart="1823.00" departLane="-592846446#0_0" departPos="79.28" departSpeed="0.77" departDelay="1823.00" arrival="2135.50" arrivalLane="592846446#0_0" arrivalPos="72.90" arrivalSpeed="5.44" duration="312.50" routeLength="73.00" waitingTime="300.20" waitingCount="1" stopTime="0.00" timeLoss="300.28" rerouteNo="0" devices="tripinfo_veh_839753f5-70af-4e11-a077-9d38f4021fe6" vType="vehicle" speedFactor="0.98" vaporized=""/>
    <tripinfo id="veh_d5e81ffa-383d-478f-a017-489f849eebbd" depart="2123.30" departLane="-592846446#0_0" departPos="79.28" departSpeed="0.77" departDelay="2123.30" arrival="2140.50" arrivalLane="-413799403#2_0" arrivalPos="84.56" arrivalSpeed="5.82" duration="17.20" routeLength="92.42" waitingTime="0.00" waitingCount="0" stopTime="0.00" timeLoss="1.23" rerouteNo="0" devices="tripinfo_veh_d5e81ffa-383d-478f-a017-489f849eebbd" vType="vehicle" speedFactor="1.05" vaporized=""/>
    <tripinfo id="veh_b75067fe-1f5d-4544-988c-4143987e2ee8" depart="2125.60" departLane="-592846446#0_0" departPos="79.28" departSpeed="0.77" departDelay="2125.60" arrival="2437.70" arrivalLane="592846446#0_0" arrivalPos="72.90" arrivalSpeed="5.66" duration="312.10" routeLength="73.00" waitingTime="300.20" waitingCount="1" stopTime="0.00" timeLoss="300.29" rerouteNo="0" devices="tripinfo_veh_b75067fe-1f5d-4544-988c-4143987e2ee8" vType="vehicle" speedFactor="1.02" vaporized=""/>
    <tripinfo id="veh_3db6e4b6-208e-487f-a65e-57d5978965b6" depart="2425.90" departLane="-592846446#0_0" departPos="79.28" departSpeed="0.77" departDelay="2425.90" arrival="2443.40" arrivalLane="-413799403#2_0" arrivalPos="84.56" arrivalSpeed="5.68" duration="17.50" routeLength="92.42" waitingTime="0.00" waitingCount="0" stopTime="0.00" timeLoss="1.19" rerouteNo="0" devices="tripinfo_veh_3db6e4b6-208e-487f-a65e-57d5978965b6" vType="vehicle" speedFactor="1.02" vaporized=""/>
    <tripinfo id="veh_fbd22d6f-87d5-47f7-acda-3c351df15b77" depart="2428.20" departLane="-592846446#0_0" departPos="79.28" departSpeed="0.77" departDelay="2428.20" arrival="2740.00" arrivalLane="592846446#0_0" arrivalPos="72.90" arrivalSpeed="5.80" duration="311.80" routeLength="73.00" waitingTime="300.20" waitingCount="1" stopTime="0.00" timeLoss="300.31" rerouteNo="0" devices="tripinfo_veh_fbd22d6f-87d5-47f7-acda-3c351df15b77" vType="vehicle" speedFactor="1.04" vaporized=""/>
