<?xml version="1.0" encoding="UTF-8"?>

<!-- generated on 2025-06-01 13:11:04 by Eclipse SUMO sumo Version 1.12.0
<configuration xmlns:xsi="http://www.w3.org/2001/XMLSchema-instance" xsi:noNamespaceSchemaLocation="http://sumo.dlr.de/xsd/sumoConfiguration.xsd">

    <input>
        <net-file value="/app/harta-automatica.net.xml"/>
        <route-files value="/app/results/routes_sim_15.rou.xml"/>
    </input>

    <output>
        <tripinfo-output value="/app/results/tripinfo_sim_15.xml"/>
    </output>

    <time>
        <begin value="0"/>
        <end value="3600"/>
        <step-length value="0.1"/>
    </time>

    <processing>
        <ignore-route-errors value="true"/>
    </processing>

    <report>
        <verbose value="true"/>
        <no-warnings value="true"/>
        <no-step-log value="true"/>
    </report>

    <traci_server>
        <remote-port value="51761"/>
    </traci_server>

    <gui_only>
        <quit-on-end value="true"/>
        <tracker-interval value="0.1"/>
    </gui_only>

</configuration>
-->

<tripinfos xmlns:xsi="http://www.w3.org/2001/XMLSchema-instance" xsi:noNamespaceSchemaLocation="http://sumo.dlr.de/xsd/tripinfo_file.xsd">
    <tripinfo id="veh_21" depart="0.00" departLane="592846449#1_0" departPos="0.10" departSpeed="0.77" departDelay="0.00" arrival="2.00" arrivalLane="-592846449#1_0" arrivalPos="0.20" arrivalSpeed="3.53" duration="2.00" routeLength="4.97" waitingTime="0.00" waitingCount="0" stopTime="0.00" timeLoss="0.65" rerouteNo="0" devices="tripinfo_veh_21" vType="vehicle" speedFactor="1.01" vaporized=""/>
    <tripinfo id="veh_22" depart="0.00" departLane="592846449#2_0" departPos="6.43" departSpeed="0.77" departDelay="0.00" arrival="3.60" arrivalLane="-592846449#2_0" arrivalPos="6.53" arrivalSpeed="4.14" duration="3.60" routeLength="11.30" waitingTime="0.00" waitingCount="0" stopTime="0.00" timeLoss="0.76" rerouteNo="0" devices="tripinfo_veh_22" vType="vehicle" speedFactor="1.01" vaporized=""/>
    <tripinfo id="veh_18" depart="0.00" departLane="-413799403#2_0" departPos="79.14" departSpeed="4.17" departDelay="0.00" arrival="3.70" arrivalLane="-675877705_0" arrivalPos="0.20" arrivalSpeed="4.17" duration="3.70" routeLength="14.80" waitingTime="0.00" waitingCount="0" stopTime="0.00" timeLoss="0.14" rerouteNo="0" devices="tripinfo_veh_18" vType="vehicle" speedFactor="0.94" vaporized=""/>
    <tripinfo id="veh_19" depart="3.70" departLane="-413799403#1_0" departPos="0.10" departSpeed="0.77" departDelay="3.70" arrival="5.70" arrivalLane="413799403#1_0" arrivalPos="0.20" arrivalSpeed="3.43" duration="2.00" routeLength="4.97" waitingTime="0.00" waitingCount="0" stopTime="0.00" timeLoss="0.61" rerouteNo="0" devices="tripinfo_veh_19" vType="vehicle" speedFactor="0.97" vaporized=""/>
    <tripinfo id="veh_25" depart="0.00" departLane="592846446#1_0" departPos="2.80" departSpeed="0.77" departDelay="0.00" arrival="5.70" arrivalLane="676167961_0" arrivalPos="0.20" arrivalSpeed="4.17" duration="5.70" routeLength="20.29" waitingTime="0.00" waitingCount="0" stopTime="0.00" timeLoss="0.77" rerouteNo="0" devices="tripinfo_veh_25" vType="vehicle" speedFactor="0.91" vaporized=""/>
    <tripinfo id="veh_20" depart="5.90" departLane="-675877705_0" departPos="0.10" departSpeed="0.77" departDelay="5.90" arrival="7.90" arrivalLane="675877705_0" arrivalPos="0.20" arrivalSpeed="3.74" duration="2.00" routeLength="4.97" waitingTime="0.00" waitingCount="0" stopTime="0.00" timeLoss="0.70" rerouteNo="0" devices="tripinfo_veh_20" vType="vehicle" speedFactor="1.08" vaporized=""/>
    <tripinfo id="veh_24" depart="4.50" departLane="592846449#3_0" departPos="16.67" departSpeed="0.77" departDelay="4.50" arrival="8.20" arrivalLane="592846449#4_0" arrivalPos="0.20" arrivalSpeed="4.03" duration="3.70" routeLength="7.10" waitingTime="0.80" waitingCount="1" stopTime="0.00" timeLoss="1.98" rerouteNo="0" devices="tripinfo_veh_24" vType="vehicle" speedFactor="0.94" vaporized=""/>
    <tripinfo id="veh_27" depart="2.40" departLane="592846446#1_0" departPos="2.80" departSpeed="0.77" departDelay="2.40" arrival="10.70" arrivalLane="676167962_0" arrivalPos="2.64" arrivalSpeed="4.17" duration="8.30" routeLength="24.95" waitingTime="0.80" waitingCount="1" stopTime="0.00" timeLoss="2.24" rerouteNo="0" devices="tripinfo_veh_27" vType="vehicle" speedFactor="0.96" vaporized=""/>
    <tripinfo id="veh_16" depart="0.00" departLane="-413799403#2_0" departPos="51.47" departSpeed="4.17" departDelay="0.00" arrival="11.80" arrivalLane="-413799403#1_0" arrivalPos="0.20" arrivalSpeed="4.17" duration="11.80" routeLength="41.22" waitingTime="0.00" waitingCount="0" stopTime="0.00" timeLoss="1.86" rerouteNo="0" devices="tripinfo_veh_16" vType="vehicle" speedFactor="0.97" vaporized=""/>
    <tripinfo id="veh_23" depart="0.00" departLane="592846449#3_0" departPos="4.61" departSpeed="4.17" departDelay="0.00" arrival="11.90" arrivalLane="-710632022_0" arrivalPos="32.33" arrivalSpeed="4.17" duration="11.90" routeLength="49.62" waitingTime="0.00" waitingCount="0" stopTime="0.00" timeLoss="0.01" rerouteNo="0" devices="tripinfo_veh_23" vType="vehicle" speedFactor="0.99" vaporized=""/>
    <tripinfo id="veh_1" depart="0.00" departLane="-413799403#0_0" departPos="311.65" departSpeed="0.77" departDelay="0.00" arrival="76.90" arrivalLane="413799403#0_0" arrivalPos="311.82" arrivalSpeed="4.17" duration="76.90" routeLength="316.59" waitingTime="0.00" waitingCount="0" stopTime="0.00" timeLoss="0.70" rerouteNo="0" devices="tripinfo_veh_1" vType="vehicle" speedFactor="0.97" vaporized=""/>
    <tripinfo id="veh_2" depart="3.10" departLane="-413799403#0_0" departPos="311.65" departSpeed="0.77" departDelay="3.10" arrival="83.70" arrivalLane="413799403#0_0" arrivalPos="311.82" arrivalSpeed="4.17" duration="80.60" routeLength="316.59" waitingTime="0.00" waitingCount="0" stopTime="0.00" timeLoss="4.44" rerouteNo="0" devices="tripinfo_veh_2" vType="vehicle" speedFactor="1.01" vaporized=""/>
    <tripinfo id="veh_3" depart="6.90" departLane="-413799403#0_0" departPos="311.65" departSpeed="0.77" departDelay="6.90" arrival="89.50" arrivalLane="413799403#0_0" arrivalPos="311.82" arrivalSpeed="4.17" duration="82.60" routeLength="316.59" waitingTime="0.00" waitingCount="0" stopTime="0.00" timeLoss="6.47" rerouteNo="0" devices="tripinfo_veh_3" vType="vehicle" speedFactor="1.04" vaporized=""/>
    <tripinfo id="veh_4" depart="10.80" departLane="-413799403#0_0" departPos="311.65" departSpeed="0.77" departDelay="10.80" arrival="94.80" arrivalLane="413799403#0_0" arrivalPos="311.82" arrivalSpeed="4.17" duration="84.00" routeLength="316.59" waitingTime="0.00" waitingCount="0" stopTime="0.00" timeLoss="7.89" rerouteNo="0" devices="tripinfo_veh_4" vType="vehicle" speedFactor="1.02" vaporized=""/>
    <tripinfo id="veh_5" depart="14.80" departLane="-413799403#0_0" departPos="311.65" departSpeed="0.77" departDelay="14.80" arrival="99.90" arrivalLane="413799403#0_0" arrivalPos="311.82" arrivalSpeed="4.17" duration="85.10" routeLength="316.59" waitingTime="0.00" waitingCount="0" stopTime="0.00" timeLoss="8.85" rerouteNo="0" devices="tripinfo_veh_5" vType="vehicle" speedFactor="0.92" vaporized=""/>
    <tripinfo id="veh_6" depart="19.00" departLane="-413799403#0_0" departPos="311.65" departSpeed="0.77" departDelay="19.00" arrival="104.90" arrivalLane="413799403#0_0" arrivalPos="311.82" arrivalSpeed="4.17" duration="85.90" routeLength="316.59" waitingTime="0.00" waitingCount="0" stopTime="0.00" timeLoss="9.73" rerouteNo="0" devices="tripinfo_veh_6" vType="vehicle" speedFactor="1.02" vaporized=""/>
    <tripinfo id="veh_10" depart="0.00" departLane="-413799403#0_0" departPos="214.92" departSpeed="4.17" departDelay="0.00" arrival="109.70" arrivalLane="413799403#0_0" arrivalPos="311.82" arrivalSpeed="4.17" duration="109.70" routeLength="413.32" waitingTime="0.00" waitingCount="0" stopTime="0.00" timeLoss="10.34" rerouteNo="0" devices="tripinfo_veh_10" vType="vehicle" speedFactor="1.03" vaporized=""/>
    <tripinfo id="veh_7" depart="27.30" departLane="-413799403#0_0" departPos="311.65" departSpeed="0.77" departDelay="27.30" arrival="114.40" arrivalLane="413799403#0_0" arrivalPos="311.82" arrivalSpeed="4.17" duration="87.10" routeLength="316.59" waitingTime="0.00" waitingCount="0" stopTime="0.00" timeLoss="10.86" rerouteNo="0" devices="tripinfo_veh_7" vType="vehicle" speedFactor="0.94" vaporized=""/>
    <tripinfo id="veh_8" depart="27.30" departLane="-413799403#0_0" departPos="233.33" departSpeed="4.17" departDelay="27.30" arrival="123.60" arrivalLane="413799403#0_0" arrivalPos="311.82" arrivalSpeed="4.17" duration="96.30" routeLength="394.91" waitingTime="0.00" waitingCount="0" stopTime="0.00" timeLoss="1.25" rerouteNo="0" devices="tripinfo_veh_8" vType="vehicle" speedFactor="0.97" vaporized=""/>
    <tripinfo id="veh_9" depart="27.30" departLane="-413799403#0_0" departPos="214.92" departSpeed="4.17" departDelay="27.30" arrival="130.60" arrivalLane="413799403#0_0" arrivalPos="311.82" arrivalSpeed="4.17" duration="103.30" routeLength="413.32" waitingTime="0.00" waitingCount="0" stopTime="0.00" timeLoss="3.84" rerouteNo="0" devices="tripinfo_veh_9" vType="vehicle" speedFactor="0.93" vaporized=""/>
    <tripinfo id="veh_11" depart="29.60" departLane="-413799403#0_0" departPos="214.92" departSpeed="4.17" departDelay="29.60" arrival="136.70" arrivalLane="413799403#0_0" arrivalPos="311.82" arrivalSpeed="4.17" duration="107.10" routeLength="413.32" waitingTime="0.00" waitingCount="0" stopTime="0.00" timeLoss="7.73" rerouteNo="0" devices="tripinfo_veh_11" vType="vehicle" speedFactor="1.05" vaporized=""/>
    <tripinfo id="veh_12" depart="33.20" departLane="-413799403#0_0" departPos="214.92" departSpeed="4.17" departDelay="33.20" arrival="142.20" arrivalLane="413799403#0_0" arrivalPos="311.82" arrivalSpeed="4.17" duration="109.00" routeLength="413.32" waitingTime="0.00" waitingCount="0" stopTime="0.00" timeLoss="9.66" rerouteNo="0" devices="tripinfo_veh_12" vType="vehicle" speedFactor="1.01" vaporized=""/>
    <tripinfo id="veh_13" depart="38.30" departLane="-413799403#0_0" departPos="218.86" departSpeed="3.33" departDelay="38.30" arrival="147.50" arrivalLane="413799403#0_0" arrivalPos="311.82" arrivalSpeed="4.17" duration="109.20" routeLength="409.38" waitingTime="0.00" waitingCount="0" stopTime="0.00" timeLoss="10.81" rerouteNo="0" devices="tripinfo_veh_13" vType="vehicle" speedFactor="1.02" vaporized=""/>
    <tripinfo id="veh_14" depart="45.50" departLane="-413799403#0_0" departPos="229.88" departSpeed="4.17" departDelay="45.50" arrival="152.60" arrivalLane="413799403#0_0" arrivalPos="311.82" arrivalSpeed="4.17" duration="107.10" routeLength="398.36" waitingTime="0.00" waitingCount="0" stopTime="0.00" timeLoss="11.39" rerouteNo="0" devices="tripinfo_veh_14" vType="vehicle" speedFactor="1.06" vaporized=""/>
    <tripinfo id="veh_15" depart="72.70" departLane="-413799403#0_0" departPos="311.65" departSpeed="0.77" departDelay="72.70" arrival="157.60" arrivalLane="413799403#0_0" arrivalPos="311.82" arrivalSpeed="4.17" duration="84.90" routeLength="316.59" waitingTime="0.00" waitingCount="0" stopTime="0.00" timeLoss="8.70" rerouteNo="0" devices="tripinfo_veh_15" vType="vehicle" speedFactor="1.00" vaporized=""/>
    <tripinfo id="veh_b6225d26-18b8-45d5-aa96-ca2f142692cf" depart="0.00" departLane="-592846446#0_0" departPos="79.28" departSpeed="0.77" departDelay="0.00" arrival="316.30" arrivalLane="592846446#0_0" arrivalPos="72.90" arrivalSpeed="4.17" duration="316.30" routeLength="73.00" waitingTime="300.20" waitingCount="1" stopTime="0.00" timeLoss="300.27" rerouteNo="0" devices="tripinfo_veh_b6225d26-18b8-45d5-aa96-ca2f142692cf" vType="vehicle" speedFactor="0.97" vaporized=""/>
    <tripinfo id="veh_17" depart="0.00" departLane="-413799403#2_0" departPos="64.46" departSpeed="4.17" departDelay="0.00" arrival="323.20" arrivalLane="413799403#2_0" arrivalPos="84.56" arrivalSpeed="4.11" duration="323.20" routeLength="109.33" waitingTime="291.90" waitingCount="1" stopTime="0.00" timeLoss="296.71" rerouteNo="0" devices="tripinfo_veh_17" vType="vehicle" speedFactor="0.96" vaporized=""/>
    <tripinfo id="veh_78d2d987-a03b-4967-97cd-5eb1398e6285" depart="300.30" departLane="-592846446#0_0" departPos="79.28" departSpeed="0.77" departDelay="300.30" arrival="323.30" arrivalLane="-413799403#2_0" arrivalPos="84.56" arrivalSpeed="4.17" duration="23.00" routeLength="92.42" waitingTime="0.00" waitingCount="0" stopTime="0.00" timeLoss="0.77" rerouteNo="0" devices="tripinfo_veh_78d2d987-a03b-4967-97cd-5eb1398e6285" vType="vehicle" speedFactor="1.07" vaporized=""/>
    <tripinfo id="veh_ff3c4caf-0a6e-48bf-a90d-d341fc637713" depart="303.30" departLane="-592846446#0_0" departPos="79.28" departSpeed="0.77" departDelay="303.30" arrival="328.30" arrivalLane="-413799403#2_0" arrivalPos="84.56" arrivalSpeed="4.17" duration="25.00" routeLength="92.42" waitingTime="0.00" waitingCount="0" stopTime="0.00" timeLoss="2.79" rerouteNo="0" devices="tripinfo_veh_ff3c4caf-0a6e-48bf-a90d-d341fc637713" vType="vehicle" speedFactor="0.97" vaporized=""/>
    <tripinfo id="veh_26" depart="0.00" departLane="413799403#2_0" departPos="12.58" departSpeed="4.17" departDelay="0.00" arrival="338.70" arrivalLane="-413799403#2_0" arrivalPos="84.56" arrivalSpeed="4.17" duration="338.70" routeLength="156.54" waitingTime="300.10" waitingCount="1" stopTime="0.00" timeLoss="302.70" rerouteNo="0" devices="tripinfo_veh_26" vType="vehicle" speedFactor="0.94" vaporized=""/>
    <tripinfo id="veh_16cef614-27e3-4b5a-80f9-9bf3ddde5f64" depart="306.30" departLane="-592846446#0_0" departPos="79.28" departSpeed="0.77" departDelay="306.30" arrival="622.60" arrivalLane="592846446#0_0" arrivalPos="72.90" arrivalSpeed="4.17" duration="316.30" routeLength="73.00" waitingTime="300.20" waitingCount="1" stopTime="0.00" timeLoss="300.27" rerouteNo="0" devices="tripinfo_veh_16cef614-27e3-4b5a-80f9-9bf3ddde5f64" vType="vehicle" speedFactor="1.09" vaporized=""/>
    <tripinfo id="veh_321cca65-85aa-4871-8340-477ef21a0889" depart="606.60" departLane="-592846446#0_0" departPos="79.28" departSpeed="0.77" departDelay="606.60" arrival="922.90" arrivalLane="592846446#0_0" arrivalPos="72.90" arrivalSpeed="4.17" duration="316.30" routeLength="73.00" waitingTime="300.20" waitingCount="1" stopTime="0.00" timeLoss="300.27" rerouteNo="0" devices="tripinfo_veh_321cca65-85aa-4871-8340-477ef21a0889" vType="vehicle" speedFactor="1.08" vaporized=""/>
    <tripinfo id="veh_86caf304-fcda-4d3e-b4eb-ff0224db7111" depart="906.90" departLane="-592846446#0_0" departPos="79.28" departSpeed="0.77" departDelay="906.90" arrival="929.90" arrivalLane="-413799403#2_0" arrivalPos="84.56" arrivalSpeed="4.17" duration="23.00" routeLength="92.42" waitingTime="0.00" waitingCount="0" stopTime="0.00" timeLoss="0.77" rerouteNo="0" devices="tripinfo_veh_86caf304-fcda-4d3e-b4eb-ff0224db7111" vType="vehicle" speedFactor="1.00" vaporized=""/>
    <tripinfo id="veh_dd3cb913-c765-4fbd-a8f2-c3a4f6b93923" depart="909.90" departLane="-592846446#0_0" departPos="79.28" departSpeed="0.77" departDelay="909.90" arrival="934.90" arrivalLane="-413799403#2_0" arrivalPos="84.56" arrivalSpeed="4.17" duration="25.00" routeLength="92.42" waitingTime="0.00" waitingCount="0" stopTime="0.00" timeLoss="2.79" rerouteNo="0" devices="tripinfo_veh_dd3cb913-c765-4fbd-a8f2-c3a4f6b93923" vType="vehicle" speedFactor="1.09" vaporized=""/>
    <tripinfo id="veh_5f94dcce-f755-4c16-9159-c23d2c98e6b3" depart="912.90" departLane="-592846446#0_0" departPos="79.28" departSpeed="0.77" departDelay="912.90" arrival="1229.20" arrivalLane="592846446#0_0" arrivalPos="72.90" arrivalSpeed="4.17" duration="316.30" routeLength="73.00" waitingTime="300.20" waitingCount="1" stopTime="0.00" timeLoss="300.27" rerouteNo="0" devices="tripinfo_veh_5f94dcce-f755-4c16-9159-c23d2c98e6b3" vType="vehicle" speedFactor="1.00" vaporized=""/>
    <tripinfo id="veh_59563556-f2c3-4ad2-9ba9-4ecda0753172" depart="1213.20" departLane="-592846446#0_0" departPos="79.28" departSpeed="0.77" departDelay="1213.20" arrival="1236.20" arrivalLane="-413799403#2_0" arrivalPos="84.56" arrivalSpeed="4.17" duration="23.00" routeLength="92.42" waitingTime="0.00" waitingCount="0" stopTime="0.00" timeLoss="0.77" rerouteNo="0" devices="tripinfo_veh_59563556-f2c3-4ad2-9ba9-4ecda0753172" vType="vehicle" speedFactor="1.01" vaporized=""/>
    <tripinfo id="veh_aa90fec5-4e0e-4ad2-85c4-99f429a3b4d2" depart="1215.60" departLane="-592846446#0_0" departPos="79.28" departSpeed="0.77" departDelay="1215.60" arrival="1531.90" arrivalLane="592846446#0_0" arrivalPos="72.90" arrivalSpeed="4.17" duration="316.30" routeLength="73.00" waitingTime="300.20" waitingCount="1" stopTime="0.00" timeLoss="300.27" rerouteNo="0" devices="tripinfo_veh_aa90fec5-4e0e-4ad2-85c4-99f429a3b4d2" vType="vehicle" speedFactor="0.99" vaporized=""/>
    <tripinfo id="veh_4ff6e212-5768-4da4-bea9-a785f0f40727" depart="1515.90" departLane="-592846446#0_0" departPos="79.28" departSpeed="0.77" departDelay="1515.90" arrival="1832.20" arrivalLane="592846446#0_0" arrivalPos="72.90" arrivalSpeed="4.17" duration="316.30" routeLength="73.00" waitingTime="300.20" waitingCount="1" stopTime="0.00" timeLoss="300.27" rerouteNo="0" devices="tripinfo_veh_4ff6e212-5768-4da4-bea9-a785f0f40727" vType="vehicle" speedFactor="1.09" vaporized=""/>
    <tripinfo id="veh_e8b5dc9a-5749-49d6-927e-1884dc3d3cb5" depart="1816.20" departLane="-592846446#0_0" departPos="79.28" departSpeed="0.77" departDelay="1816.20" arrival="1839.20" arrivalLane="-413799403#2_0" arrivalPos="84.56" arrivalSpeed="4.17" duration="23.00" routeLength="92.42" waitingTime="0.00" waitingCount="0" stopTime="0.00" timeLoss="0.77" rerouteNo="0" devices="tripinfo_veh_e8b5dc9a-5749-49d6-927e-1884dc3d3cb5" vType="vehicle" speedFactor="1.05" vaporized=""/>
    <tripinfo id="veh_e56566d4-a5f0-4d1f-83e5-85de4bfda59b" depart="1819.20" departLane="-592846446#0_0" departPos="79.28" departSpeed="0.77" departDelay="1819.20" arrival="1844.20" arrivalLane="-413799403#2_0" arrivalPos="84.56" arrivalSpeed="4.17" duration="25.00" routeLength="92.42" waitingTime="0.00" waitingCount="0" stopTime="0.00" timeLoss="2.79" rerouteNo="0" devices="tripinfo_veh_e56566d4-a5f0-4d1f-83e5-85de4bfda59b" vType="vehicle" speedFactor="0.95" vaporized=""/>
    <tripinfo id="veh_6459dab1-9d9f-49c5-a66b-b2ecd7140dfa" depart="1822.20" departLane="-592846446#0_0" departPos="79.28" departSpeed="0.77" departDelay="1822.20" arrival="2138.50" arrivalLane="592846446#0_0" arrivalPos="72.90" arrivalSpeed="4.17" duration="316.30" routeLength="73.00" waitingTime="300.20" waitingCount="1" stopTime="0.00" timeLoss="300.27" rerouteNo="0" devices="tripinfo_veh_6459dab1-9d9f-49c5-a66b-b2ecd7140dfa" vType="vehicle" speedFactor="1.02" vaporized=""/>
    <tripinfo id="veh_839753f5-70af-4e11-a077-9d38f4021fe6" depart="2122.50" departLane="-592846446#0_0" departPos="79.28" departSpeed="0.77" departDelay="2122.50" arrival="2145.50" arrivalLane="-413799403#2_0" arrivalPos="84.56" arrivalSpeed="4.17" duration="23.00" routeLength="92.42" waitingTime="0.00" waitingCount="0" stopTime="0.00" timeLoss="0.77" rerouteNo="0" devices="tripinfo_veh_839753f5-70af-4e11-a077-9d38f4021fe6" vType="vehicle" speedFactor="0.98" vaporized=""/>
    <tripinfo id="veh_d5e81ffa-383d-478f-a017-489f849eebbd" depart="2125.50" departLane="-592846446#0_0" departPos="79.28" departSpeed="0.77" departDelay="2125.50" arrival="2150.50" arrivalLane="-413799403#2_0" arrivalPos="84.56" arrivalSpeed="4.17" duration="25.00" routeLength="92.42" waitingTime="0.00" waitingCount="0" stopTime="0.00" timeLoss="2.79" rerouteNo="0" devices="tripinfo_veh_d5e81ffa-383d-478f-a017-489f849eebbd" vType="vehicle" speedFactor="1.05" vaporized=""/>
    <tripinfo id="veh_b75067fe-1f5d-4544-988c-4143987e2ee8" depart="2129.20" departLane="-592846446#0_0" departPos="79.28" departSpeed="0.77" departDelay="2129.20" arrival="2155.10" arrivalLane="-413799403#2_0" arrivalPos="84.56" arrivalSpeed="4.17" duration="25.90" routeLength="92.42" waitingTime="0.00" waitingCount="0" stopTime="0.00" timeLoss="3.67" rerouteNo="0" devices="tripinfo_veh_b75067fe-1f5d-4544-988c-4143987e2ee8" vType="vehicle" speedFactor="1.02" vaporized=""/>
    <tripinfo id="veh_3db6e4b6-208e-487f-a65e-57d5978965b6" depart="2132.40" departLane="-592846446#0_0" departPos="79.28" departSpeed="0.77" departDelay="2132.40" arrival="2448.70" arrivalLane="592846446#0_0" arrivalPos="72.90" arrivalSpeed="4.17" duration="316.30" routeLength="73.00" waitingTime="300.20" waitingCount="1" stopTime="0.00" timeLoss="300.27" rerouteNo="0" devices="tripinfo_veh_3db6e4b6-208e-487f-a65e-57d5978965b6" vType="vehicle" speedFactor="1.02" vaporized=""/>
    <tripinfo id="veh_fbd22d6f-87d5-47f7-acda-3c351df15b77" depart="2432.70" departLane="-592846446#0_0" departPos="79.28" departSpeed="0.77" departDelay="2432.70" arrival="2455.70" arrivalLane="-413799403#2_0" arrivalPos="84.56" arrivalSpeed="4.17" duration="23.00" routeLength="92.42" waitingTime="0.00" waitingCount="0" stopTime="0.00" timeLoss="0.77" rerouteNo="0" devices="tripinfo_veh_fbd22d6f-87d5-47f7-acda-3c351df15b77" vType="vehicle" speedFactor="1.04" vaporized=""/>
    <tripinfo id="veh_a0cce44d-cbd8-4ebc-9362-7449e792988c" depart="2435.70" departLane="-592846446#0_0" departPos="79.28" departSpeed="0.77" departDelay="2435.70" arrival="2460.70" arrivalLane="-413799403#2_0" arrivalPos="84.56" arrivalSpeed="4.17" duration="25.00" routeLength="92.42" waitingTime="0.00" waitingCount="0" stopTime="0.00" timeLoss="2.79" rerouteNo="0" devices="tripinfo_veh_a0cce44d-cbd8-4ebc-9362-7449e792988c" vType="vehicle" speedFactor="1.00" vaporized=""/>
